0ad
0ad-data
0install
2048-cli
2ping
389-admin
389-admin-console
389-adminutil
389-console
389-ds
389-ds-base
389-ds-console
389-dsgw
3mux
3proxy
4diac-forte
4ti2
64tass
6tunnel
8sync
90-Second-Portraits
AGReader
AMF
ATpy
Agda
Agda-stdlib
Ajaxterm
AntTweakBar
ArpON
AusweisApp2
BEDTools
BackupPC
BackupPC-XS
BareBonesBrowserLaunch
BibTool
BitchX
CBFlib
CCfits
CFR
CGAL
CGSI-gSOAP
CImg
CQRlib
CTL
CUnit
CVector
CableSwig
Canna
Carla
CharLS
Charliecloud
Coin2
Coin3
Coin4
ColPack
Common documentation files for oVirt
CutyCapt
Cython
DMitry
DNS-Compliance-Testing
DivFix++
Django
Django-south
Django14
ETL
FAudio
FP16
Field3D
FlightCrew
FlightGear
FlightGear-data
FoXlibf
GConf2
GLC_Player
GLC_lib
GMT
GMT-coastlines
GMT-doc
GarminPlugin
GeoIP
GeoIP-GeoLite-data
GeographicLib
GitPython
GraphicsMagick
GtkAda
GtkAda3
HepMC
HepMC3
HikariCP
IBSimu
IP2Location
IPAddress
IQmol
ImageMagick
Inventor
JSDoc
Judy
KPMcore
LibRaw
LibRaw-epel
Lmod
LogService
LuxRender
MUMPS
Macaulay2
Mayavi
MochiKit
MySQL-zrm
NLopt
NaturalDocs
NearTree
NetPIPE
NetworkManager-fortisslvpn
NetworkManager-l2tp
NetworkManager-openconnect
NetworkManager-openvpn
NetworkManager-pptp
NetworkManager-strongswan
NetworkManager-vpnc
NsCDE
OCE
ORBit
ORBit2
OpenColorIO
OpenEXR
OpenEXR_CTL
OpenEXR_Viewers
OpenImageIO
OpenLP
OpenMolcas
OpenSceneGraph
OpenStego
PDAL
PEGTL
Package Review
PackageKit-Qt
Panini
Pencil2D
PerceptualDiff
Perlbal
Pixie
Pound
PragmARC
ProDy
PyDrive
PyKDE
PyMunin
PyPAM
PyQt
PyQt-builder
PyQt-qscintilla
PyQt4
PyQt4-webkit
PyQuante
PyQwt
PySolFC
PySolFC-cardsets
PySolFC-music
PyXB
PyYAML
PythonCard
QMsgBox
QsLog
Quake2
QuantLib
R
R-DBI
R-RInside
R-RM2
R-RODBC
R-RSQLite
R-RScaLAPACK
R-RUnit
R-Rcpp
R-Rsolid
R-TH-data
R-XVector
R-biglm
R-car
R-hdf5
R-highlight
R-inline
R-littler
R-lmtest
R-msm
R-multcomp
R-mvtnorm
R-nws
R-qtl
R-rJava
R-rlecuyer
R-rpm-macros
R-sandwich
R-systemfit
R-zoo
R2spec
RBTools
RabbIT
RackTables
Ray
RdRand
RemoteBox
Review Request: golang-github-garyburd-redigo
ReviewBoard
Rex
SDL2
SDL2_gfx
SDL2_image
SDL2_mixer
SDL2_net
SDL2_ttf
SDL_Pango
SDL_gfx
SDL_image
SDL_mixer
SDL_net
SDL_sound
SDL_ttf
SFCGAL
SIBsim4
SIMVoleon
SLOF
SOAPpy
ScientificPython
ScrollZ
ShellCheck
SimGear
SkyX
SoQt
SoapySDR
SocketW
Spawning
StarCluster
SuperLU
SuperLUMT
TeXmacs
Terminal
Thunar
TurboGears
TurboGears2
UnihanDb
UpTools
VK_hdr_layer
VLGothic-fonts
VMDKstream
VirtualGL
WALinuxAgent
WindowMaker
WindowMaker-extra
Xaw3d
Xnee
YafaRay
Zim
a2ps
a52dec
aajohan-comfortaa-fonts
aalib
abattis-cantarell-fonts
abc
abcMIDI
abcde
abcm2ps
abduco
abgraph
abi-compliance-checker
abi-dumper
abi-tracker
abiword
abook
abootimg
abrt-addon-python3
abrt-server-info-page
abseil-cpp
accel-ppp
accessibility-inspector
accounts-qml-module
accrete
accumulo
aces_container
ack
acme-tiny
acpitool
act
activemq-cpp
adapta-backgrounds
adapta-gtk-theme
adb-enhanced
adcli
addrwatch
adf-gillius-fonts
admesh
adobe-source-code-pro-fonts
adobe-source-han-sans-cn-fonts
adobe-source-han-sans-jp-fonts
adobe-source-han-sans-kr-fonts
adobe-source-han-sans-tw-fonts
adobe-source-han-sans-twhk-fonts
adobe-source-sans-pro-fonts
adoptium-temurin-java-repository
adplug
advancecomp
aesfix
aesh
aeskeyfind
aespipe
afetch
afflib
afpfs-ng
afraid-dyndns
afuse
agedu
aget
agg
aggregate
aggregate6
aha
ahc-tools
ahven
aiccu
aime
aiodnsbrute
airinv
airline
airnef
airrac
airsched
airspyone_host
airtsp
aisleriot
akmods
akode
akonadi-calendar
akonadi-calendar-tools
akonadi-contacts
akonadi-import-wizard
akonadi-mime
akonadi-notes
akonadi-search
akonadi-server
akonadiconsole
akregator
alacarte
alembic
alevt
alex
alglib
algobox
algol68g
alien
alignak
alizams
allegro
alliance
alligator
almas-mongolian-title-fonts
alot
alpine
alsa-ucm-asahi
alsamixergui
altermime
am-utils
amanda
amanith
amarok
amavis
amavisd-milter
amavisd-new
amazon-ec2-utils
amg4psblas
amiri-fonts
aml
ampache_browser
amqp
amtk
amtterm
anaconda-liveinst
analitza
and
andriller
android-tools
androwarn
anet
angband
angelfish
animorph
anjuta
ann
annobin
anope
ansible
ansible-collection-ansible-netcommon
ansible-collection-ansible-posix
ansible-collection-ansible-utils
ansible-collection-ansible-windows
ansible-collection-awx-awx
ansible-collection-chocolatey-chocolatey
ansible-collection-community-crypto
ansible-collection-community-docker
ansible-collection-community-general
ansible-collection-community-libvirt
ansible-collection-community-mysql
ansible-collection-community-postgresql
ansible-collection-community-rabbitmq
ansible-collection-containers-podman
ansible-collection-mdellweg-filters
ansible-collection-netbox-netbox
ansible-collection-pulp-pulp_installer
ansible-inventory-grapher
ansible-lint
ansible-openstack-modules
ansible-packaging
ansible-review
ansible1.9
ansifilter
ant-antunit
ant-contrib
anthy
anthy-unicode
anthy-unicode-epel
antiword
antlr-maven-plugin
antlr3
antlr4
antlr4-project
aoetools
aom
apache-commons-chain
apache-commons-csv
apache-commons-digester
apache-commons-discovery
apache-commons-fileupload
apache-commons-jcs
apache-commons-jexl
apache-ivy
apache-james-project
apache-mime4j
apache-poi
apache-rat
apachetop
apbs
apcupsd
apfs-fuse
apg
apiextractor
apigen
apiviz
apollon
appdata-tools
apper
applet-window-buttons
appliance-tools
appres
appstream
apptainer
appx-util
apt
apt-cacher-ng
apt-mirror
apvlv
aqbanking
aqsis
aquatone
aqute-bnd-epel
ara
arc
arc-gui-clients
arc-theme
arch-install-scripts
archaius
archimedes
archivemail
archivemount
archlinux-keyring
archmage
arduino
argbash
argon2
argparse-manpage
argtable
argus
ari-backup
aria2
arianna
aribb24
aribb25
aries-blueprint-annotation-api
aries-blueprint-api
aries-blueprint-core
aries-blueprint-parser
aries-proxy-api
aries-proxy-impl
aries-quiesce-api
aries-util
arj
ark
arm-gp2x-linux-SDL
arm-gp2x-linux-binutils
arm-gp2x-linux-gcc
arm-gp2x-linux-glibc
arm-gp2x-linux-kernel-headers
arm-none-eabi-binutils-cs
arm-none-eabi-gcc-cs
arm-none-eabi-newlib
arm-trusted-firmware
armadillo
arp-scan
arpack
arprec
arpwatch
arquillian-core
artemis
artemis-wildfly-integration
artha
artikulate
arts
artwiz-aleczapka-fonts
asa
asana-math-fonts
ascii
ascii-design
asciidoc
asciinema
asciiquarium
asdcplib
asio
askbot
askbot-plugin-authfas
asl
asm2
asnip
aspectjweaver
aspell-af
aspell-bg
aspell-bn
aspell-br
aspell-ca
aspell-cs
aspell-cy
aspell-da
aspell-de
aspell-el
aspell-en
aspell-es
aspell-fi
aspell-fo
aspell-fr
aspell-ga
aspell-gd
aspell-gl
aspell-gu
aspell-hi
aspell-hr
aspell-id
aspell-is
aspell-it
aspell-la
aspell-ml
aspell-mr
aspell-nl
aspell-no
aspell-or
aspell-pa
aspell-pl
aspell-pt_BR
aspell-pt_PT
aspell-ru
aspell-sk
aspell-sl
aspell-sr
aspell-sv
aspell-ta
aspell-te
assertj-core
assimp
ast
asterisk
asterisk-gui
asterisk-sounds-core
astigmatic-grand-hotel-fonts
astronomy-bookmarks
astronomy-menus
astyle
atanua
atari++
atari800
atasm
aterm
atf
ath_info
atlas
atomes
atomic-queue
atomic-reactor
atomicapp
atomix
atool
atop
atoum
atril
audacious
audacious-plugins
audacity
audex
audio-entropyd
audiocd-kio
audiofile
audiotube
augeas
auter
authbind
auto
auto-buildrequires
auto-destdir
autoconf-archive
autoconf2.7x
autoconf268
autodir
autodocksuite
autodownloader
autogen
autojump
autokey
autossh
autotest-framework
autotrace
autotrash
autotrust
autowrap
avahi-epel
avarice
avl
avogadro2
avogadro2-libs
avr-binutils
avr-gcc
avr-gdb
avr-libc
avra
avrdude
avro
awesome-vim-colorschemes
aws-c-auth
aws-c-cal
aws-c-common
aws-c-compression
aws-c-event-stream
aws-c-http
aws-c-io
aws-c-mqtt
aws-c-sdkutils
aws-checksums
aws-shell
awscli
awscli2
awstats
axc
axel
axis
axis2c
azote
azure-cli
b43-tools
babel
babeld
babeltrace
backintime
backup-manager
backupninja
bacula
bacula-docs
badchars
bakefile
balance
baloo-widgets
balsa
bam
bandit
bandwidthd
banner
bannergrab
banshee
barcode
baresip
barman
barrier
basez
bash-argsparse
bash-completion
bash-completion-extras
bashdb
bashmount
bashtop
basket
batctl
bats
bbkeys
bcfg2
bcftools
bcg729
bcrypt
bctoolbox
bcunit
bdftopcf
bdii
bdsync
be
bea-stax
beaker
beakerlib
beakerlib-libraries
bean-validation-api
beanstalk-client
beanstalkd
bear
beecrypt
beep
beesu
beets
belcard
belle-sip
belr
berusky2
berusky2-data
bettercap
bfast
bfgminer
bfs
bgpq3
bgpq4
bibexport
biblesync
bibutils
bifcl
bigloo
binaryen
bind-libbind
bind-to-tinydns
bind9-next
bindfs
bio2jack
bionetgen
bios_extract
biosdevname
bip
bird
bird2
bitcoin-core
bitcoin-core-selinux
bitlbee
bitlbee-discord
bitlbee-facebook
bitlbee-steam
bitmap
bitstower-markets
bitstream
bitstream-vera-fonts
bitten
bkhive
blackbox
blacs
blahtexml
blake3
bleachbit
blender
blinken
blis
blitz
blivet-gui
blktap
blktrace
bloaty
blosc
blt
blueberry
bluebird
bluechi
bluecurve-icon-theme
bluedevil
bluefish
blueman
blueproximity
bluez-tools
bmap-tools
bmon
boa
bodhi
bodhi-client
bogofilter
boinc-client
boinc-tui
bomber
bonnie++
booksorg
bookworm
boolstuff
boom
boost-nowide
boost-python3
boost1.78
boost141
boost148
boost169
bootc-gtk
borgbackup
borgmatic
botan
botan2
bottlerocket
bouncycastle
bouncycastle-mail
bouncycastle-pkix
bouncycastle-tsp
bouncycastle1.58
bovo
bowtie
bowtie2
boxed-cpp
boxes
bpfmon
bpython
bpytop
brasero
breathe
breeze-gtk
breeze-icon-theme
brettfont-fonts
bridge-utils
brightlight
brightnessctl
brise
bro
brotli
bsd-mailx
bsdiff
bspwm
btest
bti
btkbdd
btm
btop
btrbk
btrfs-efi
btrfs-fuse
btrfs-progs
btrfs-sxbackup
bubblewrap
bucardo
budgie
bugwarrior
bugyou
bugyou_plugins
bugzilla
build-constraints-rpm-macros
buildbot
bullet
bumpversion
bup
burp
busybox
bvi
bwa
bwbar
bwidget
bwm-ng
bwping
byobu
bytelist
bzip3
bzr
bzr-fastimport
bzr-gtk
bzrtools
c-ares
c-ares19
c-icap
c-icap-modules
c2hs
c3p0
c4core
c4fs
c4log
c4project
cAudio
cabal-dev
cabal-install
cabal-rpm
cabextract
cachelib
cacti
cacti-spine
cadaver
caddy
cadvisor
cairomm
caja
caja-actions
caja-extensions
caja-terminal
cajun-jsonapi
cal3d
calamaris
calc
calceph
calcurse
calendar
calendarsupport
calindori
calligra
calligra-l10n
callweaver
camE
cambozola
caml-crush
camorama
camotics
campivisivi-titillium-fonts
can-utils
canl-c
canl-c++
canl-java
cantata
cantera
cantoolz
cantor
capnproto
capstats
capstone
carbon-c-relay
carbonate
cargo
cargo-parent
cargo2rpm
caribou
caribou0
cas
casc
cascadia-code-fonts
cashe
castget
castor
castxml
casync
catch
catch1
catch2
catdoc
catimg
catkin
cbonsai
cbootimage
cc1541
cc65
ccache
cciss_vol_status
ccrtp
ccrypt
ccsm
ccze
cd-discid
cdac-sakal-marathi-fonts
cdbs
cddlib
cdk
cdlabelgen
cdparanoia
cdpr
cdrdao
cdrkit
cdw
cego
cekit
celestia
cellwriter
celt
celt071
centerim
centos-packager
centpkg
centpkg-minimal
cepces
ceph
ceph-ansible
ceph-deploy
cereal
ceres-solver
cernlib
cernlib-g77
certbot
certmaster
certwatch
cervisia
cf-sorts-mill-goudy-fonts
cfengine
cfitsio
cfv
cgdb
cgit
cglib
cgnslib
chafa
chameleon
chaos-client
charliecloud
check
check-mk
check_postgres
checkpointctl
checksec
checkstyle
chemtool
cherokee
cherrytree
chez-scheme
chicken
chirp
chisel
chkrootkit
chm2pdf
chmlib
chntpw
chocolate-doom
chromaprint
chrome-gnome-shell
chromium
chrony
chrpath
chunkfs
cim-schema
cinch
cinepaint
cinfo
cinnamon
cinnamon-control-center
cinnamon-desktop
cinnamon-menus
cinnamon-screensaver
cinnamon-session
cinnamon-settings-daemon
cinnamon-themes
cinnamon-translations
ciphertest
civetweb
cjdns
cjs
cjson
ck
ckeditor
ckermit
cksfv
cl-asdf
clac
clamav
clamav-unofficial-sigs
clamsmtp
clamz
clang
clang13
clang15
clang16
clapham
classads
classification-banner
classmate
classpathless-compiler
clatd
claws-mail
claws-mail-plugins
clazy
clblast
clean
clean-extra-utils
clearlooks-phenix
clearsilver
clement
clementine
cli-parser
cli11
clibs-list
clide
clifm
clinfo
clipit
clipper
clips
clipsmm
clitest
cln
cloc
clojure
clojure-compat
cloog
cloud-init
cloud-initramfs-tools
cloud-utils
cloudy
clpbar
clucene
clucene09
clustal-omega
clustershell
clusterssh
clutter-epel
clutter-gst3-epel
clutter-gtk-epel
cmake
cmake-fedora
cmake28
cmake3
cmap-resources
cmark
cmatrix
cmdtest
cminpack
cmocka
cmockery2
cmospwd
cmrt
cmucl
cntlm
co2mon
coan
cobbler
cobbler3.2
coccinelle
cockatrice
cockpit-file-sharing
cockpit-navigator
codeblocks
codec2
codehaus-parent
codemod
codespell
coffee-script
cogl-epel
coin-or-CoinUtils
coin-or-Data-Netlib
coin-or-Ipopt
coin-or-Sample
collada-dom
collectd
collectl
colm
colord-kde
colordiff
colorize
combblas
comedilib
comic-neue-fonts
commit-stream
common-lisp-controller
commoncpp2
compat-freerdp12
compat-gtkhtml314
compat-guile18
compat-libuv010
compat-lua
compat-qpid-cpp
compat-tidy
compat-wxGTK
compat-wxGTK3-gtk2
compat-wxPythonGTK2
compface
compiz
compiz-bcop
compiz-fusion
compiz-fusion-extras
compiz-fusion-unsupported
compiz-manager
compiz-plugins-experimental
compiz-plugins-extra
compiz-plugins-main
compizconfig-backend-gconf
compizconfig-backend-kconfig4
compizconfig-python
compose-utils
composefs
composer
compton
conakry-fonts
concurrentunit
conda
conda-build
condor
cone
configsnap
conky
conky-manager
conman
conmux
connect-proxy
connman
conntrack-tools
conserver
console-bridge
conspy
consul
container-exception-logger
containerd
containernetworking-cni
contractor
conu
converseen
convert2rhel
convertall
cookcc
cool-retro-term
coot
copr
copr-builder
copr-cli
copr-dist-git
copr-messaging
copr-rpmbuild
copr-selinux
copy-jdk-configs
copyq
coreboot-utils
corectrl
coreos-installer
coriander
corosync
corosync-epel
corrida
corrosion
cotila
coturn
couchdb
courier-unicode
covered
cowsay
cowsql
cp2k
cpanspec
cpdup
cpl
cpm
cpmtools
cpp-hocon
cpp-httplib
cpp-jwt
cppad
cppcheck
cppformat
cpphs
cpptasks
cpptest
cppunit
cpputest
cppzmq
cpqarrayd
cproto
cptutils
cpufetch
cpuid
cpuinfo
cpulimit
cqrlog
cr-marcstevens-snippets
crack
create-fake-rpm
create-tx-configuration
createrepo
createrepo-agent
createrepo_c
credentials-fetcher
credslayer
cri-o
crlfuzz
crlibm
crm114
croaring
cronolog
cros-guest-tools
cross-binutils
cross-gcc
crudini
crudminer
crun-wasm
cryfs
cryptacular
cryptkeeper
cryptlib
crypto
crypto-policies
cryptopp
cscppc
csdiff
csmash
csmock
csnappy
csound
csslint
cssparser
csstidy
csvcat
cswrap
csync2
ctags
ctapi-common
ctapi-cyberjack
ctdb
ctemplate
ctorrent
ctpl
ctstream
cube
cups-bjnp
cups-pdf
cups-x2go
curlftpfs
curlpp
cutter-re
cv
cvechecker
cvs
cvs2cl
cvs2svn
cvsgraph
cvsplot
cvsps
cvsweb
cwdaemon
cxf
cxf-build-utils
cxf-xjc-utils
cxxopts
cxxtest
cycle
czmq
d-din-fonts
d-feet
d4x
d52
dSFMT
daala
daemonize
dahdi-tools
dans-gdal-scripts
dansguardian
dante
dap-freeform_handler
dap-hdf4_handler
dap-netcdf_handler
dap-server
daq
dar
darcs
darkclient
darkhttpd
darkserver
darkstat
darktable
dash
datagrepper
datalog
datamash
datanommer
datanommer-commands
dateformat
datefudge
dateutils
datovka
dav1d
davfs2
davix
dayjournal
dbench
dblatex
dbmail
dbus-broker
dbus-c++
dbus-cxx
dbus-glib
dbus-qt
dbus-sharp
dbus-sharp-glib
dbus-test-runner
dbus-tools
dbusmenu-qt
dbusmenu-qt5
dc3dd
dcap
dcfldd
dclib
dcmtk
dcw-gmt
dd_rescue
ddclient
ddcutil
ddd
ddgr
ddnet
ddpt
ddrescue
ddupdate
debbuild
debconf
debhelper
debian-keyring
debmirror
debootstrap
debugbreak
debugedit
decnumber
dehydrated
deja-dup
dejavu-fonts
deltacloud-core
deltarpm
deltaspike
denyhosts
derby
derrick
deskbar-applet
desktop-backgrounds
desktop-data-model
detox
dev86
devilspie2
devio
devscripts
devtodo2
dex
dfc
dfu-programmer
dfu-util
dfuzzer
dgc
dgit
dh-autoreconf
dh-make
dhall
dhall-json
dhcpcd
dhcpd-pools
dhcpdump
dhcping
dhtest
dia
dia-CMOS
dia-Digital
dia-electric2
dia-electronic
dia-gnomeDIAicons
dia-optics
dib-utils
dibbler
dictd
did
dieharder
dietlibc
diff-pdf
diff-so-fancy
diffmark
diffuse
digikam
digikam-doc
digikamimageplugins
digikamimageplugins-doc
digitemp
dillo
din
dinotrace
dionaea
dirac
dircproxy
directfb
dirmngr
dirvish
disciplining-minipod
discount
disk-utilities
diskimage-builder
disktype
dislocker
dispenso
disper
disruptor
dissy
dist-git
dist-git-client
distcc
distgen
distribution
distribution-gpg-keys
distrobox
django-addons
django-ajax-selects
django-annoying
django-authenticator
django-authopenid
django-authority
django-avatar
django-celery
django-contact-form
django-countries
django-dpaste
django-evolution
django-extra-form-fields
django-filter
django-flash
django-followit
django-keyedcache
django-kombu
django-lint
django-mako
django-mptt
django-notification
django-pagination
django-picklefield
django-piston
django-profile
django-profiles
django-pylibmc
django-recaptcha
django-recaptcha-works
django-registration
django-reversion
django-robots
django-simple-captcha
django-sorting
django-staticfiles
django-tables
django-tagging
django-tastypie
django-threaded-multihost
django-threadedcomments
django-tinymce
django-tracking
django-typepad
djview4
djvulibre
dkim-milter
dkms
dl
dl-fedora
dl_poly
dlib
dlrn
dlt-daemon
dmenu
dmg2img
dmlite
dmlite-plugins-adapter
dmlite-plugins-librarian
dmlite-plugins-memcache
dmlite-plugins-mysql
dmlite-plugins-profiler
dmlite-plugins-s3
dmlite-shell
dmtcp
dmtx-utils
dmz-cursor-themes
dnf
dnf-langpacks
dnf-plugin-diff
dnf-plugin-flunk_dependent_remove
dnf-plugin-ovl
dnf-plugin-perfmetrics
dnf-plugins-core
dnf-repo
dnscrypt-proxy
dnscrypt-proxy2
dnsdist
dnsenum
dnsgen
dnsjava
dnsmap
dnsmasq
dnsperf
dnsprobe
dnssec-check
dnssec-conf
dnssec-nodes
dnssec-system-tray
dnssec-tools
dnssec-trigger
dnstop
dnstracer
dnsviz
dnsyo
docbook2X
docbook5-style-xsl
docco
dock
docker
docker-compose
docker-distribution
docker-io
docker-registry
docopt-cpp
doctest
doge
dogtag-pki
dogtag-pki-ca-ui
dogtag-pki-common-ui
dogtag-pki-console-ui
dogtag-pki-kra-ui
dogtag-pki-ocsp-ui
dogtag-pki-ra-ui
dogtag-pki-theme
dogtag-pki-tks-ui
dogtag-pki-tps-ui
dogtail
dojo
dokuwiki
dolphin
dolphin-connector
dolphin-plugins
dom4j
dosbox
double-conversion
double-conversion-epel
dovecot-fts-xapian
doxy2man
dpkg
dpm-contrib-admintools
dpm-dsi
dpm-xrootd
dpsearch
dr_libs
draco
dragon
dragonegg
drascula
drawing
drawtiming
drbd
drbdlinks
dreamweb
drgeo
drgeo-doc
drobo-utils
dropbear
dropwatch
drraw
drupal
drupal-cck
drupal-views
drupal6
drupal6-addthis
drupal6-admin_menu
drupal6-advanced-help
drupal6-authfas
drupal6-auto_nodetitle
drupal6-backup_migrate
drupal6-better_formats
drupal6-block_class
drupal6-calendar
drupal6-cck
drupal6-comment_bonus_api
drupal6-context
drupal6-context_menu_block
drupal6-ctools
drupal6-custom_breadcrumbs
drupal6-date
drupal6-devel
drupal6-diff
drupal6-drush
drupal6-eazylaunch
drupal6-emfield
drupal6-faq
drupal6-features
drupal6-features_extra
drupal6-feeds
drupal6-filefield
drupal6-fivestar
drupal6-flag
drupal6-flexifilter
drupal6-footnotes
drupal6-freelinking
drupal6-geshifilter
drupal6-image
drupal6-image_resize_filter
drupal6-imageapi
drupal6-imagecache
drupal6-imagecache_profiles
drupal6-imagefield
drupal6-insert
drupal6-job_scheduler
drupal6-link
drupal6-login_destination
drupal6-markdown
drupal6-media_vimeo
drupal6-media_youku
drupal6-menu_block
drupal6-messaging
drupal6-mobile_tools
drupal6-node_import
drupal6-notifications
drupal6-og
drupal6-path_redirect
drupal6-pathauto
drupal6-prepopulate
drupal6-rules
drupal6-stringoverrides
drupal6-strongarm
drupal6-theme-ninesixty
drupal6-token
drupal6-user_badges
drupal6-userpoints
drupal6-userpoints_votingapi
drupal6-vertical_tabs
drupal6-video
drupal6-views
drupal6-views_bonus
drupal6-views_bulk_operations
drupal6-views_customfield
drupal6-views_datasource
drupal6-vote_up_down
drupal6-votingapi
drupal6-wikitools
drupal6-yubikey
drupal7
drupal7-active_tags
drupal7-addressfield
drupal7-admin_language
drupal7-admin_menu
drupal7-admin_theme
drupal7-advanced_help
drupal7-auto_nodetitle
drupal7-backup_migrate
drupal7-block_class
drupal7-boxes
drupal7-calendar
drupal7-cck
drupal7-chosen
drupal7-ckeditor
drupal7-context
drupal7-crumbs
drupal7-cs_adaptive_image
drupal7-ctools
drupal7-date
drupal7-date_ical
drupal7-diff
drupal7-domain
drupal7-domain_locale
drupal7-domain_views
drupal7-drafty
drupal7-drush_language
drupal7-ds
drupal7-email
drupal7-entity
drupal7-entity_translation
drupal7-eva
drupal7-features
drupal7-features_extra
drupal7-features_plumber
drupal7-feeds
drupal7-fences
drupal7-field_permissions
drupal7-file_entity
drupal7-file_entity_inline
drupal7-fivestar
drupal7-flexifilter
drupal7-footnotes
drupal7-google_analytics
drupal7-honeypot
drupal7-i18n
drupal7-i18n_boxes
drupal7-i18nviews
drupal7-job_scheduler
drupal7-jquery_update
drupal7-l10n_client
drupal7-l10n_pconfig
drupal7-l10n_server
drupal7-l10n_update
drupal7-lang_dropdown
drupal7-language_cookie
drupal7-language_switcher
drupal7-languageicons
drupal7-libraries
drupal7-link
drupal7-locale_auto_import
drupal7-locale_cookie
drupal7-login_destination
drupal7-markdown
drupal7-mediawiki_api
drupal7-menu_token
drupal7-metatag
drupal7-migrate
drupal7-module_filter
drupal7-panels
drupal7-path_breadcrumbs
drupal7-pathauto
drupal7-potx
drupal7-profiler
drupal7-rules
drupal7-site_map
drupal7-stringoverrides
drupal7-strongarm
drupal7-taxonomy_access_fix
drupal7-theme-adaptivetheme
drupal7-theme-ninesixty
drupal7-theme-zen
drupal7-title
drupal7-tmgmt
drupal7-token
drupal7-translation_helpers
drupal7-translation_overview
drupal7-translation_table
drupal7-transliteration
drupal7-uuid
drupal7-variable
drupal7-views
drupal7-views_bulk_operations
drupal7-views_rss
drupal7-views_slideshow
drupal7-votingapi
drupal7-webform
drupal7-workbench
drupal7-workbench_moderation
drupal7-xmlsitemap
drush
ds9
dsniff
dspam
dssp
dstat
dtc
dtv-scan-tables
dub
duc
duktape
dumb-init
dummy-package-canary
dump
dumpet
duo_unix
duperemove
duplicity
duply
dustin-domestic-manners-fonts
dustin-dustismo-fonts
dvblast
dvd+rw-tools
dvdauthor
dvdbackup
dvdisaster
dvisvgm
dvtm
dwarves
dwatch
dwdiff
dx
dx-samples
dymo-cups-drivers
dynafed
dynaplugz
dyninst
dzen2
e00compr
e3
earcandy
earcut-hpp
earlyoom
easy-rsa
easybashgui
easyeffects
easyloggingpp
easymock
easymock3
easytag
eb
eboard
ebook-tools
ebtables
ebtree
ec2-hibinit-agent
ec2-instance-connect
eccodes
ecdsautils
echolinux
ecj
eclipse
eclipse-avr
eclipse-cdt
eclipse-checkstyle
eclipse-eclox
eclipse-filesystem
eclipse-photran
eclipse-phpeclipse
eclipse-ptp
eclipse-setools
eclipse-slide
eclipse-subclipse
eclipse-texlipse
eclipse-veditor
eclipselink
ecryptfs-simple
ecryptfs-utils
edac-utils
edflib
edg-gridftp-client
edg-mkgridmap
editarea
editline
editorconfig
edk2
edk2-epel
efifs
efl
efte
eg
eggdrop
egl-gbm
egl-wayland
egl-wayland-epel
egl-x11
eglexternalplatform
egtk
ehcache-core
ehcache-sizeof-agent
ehcache2
eigen
eigen2
eigen3
ejabberd
ekmukta-fonts
elastic-curator
elasticdump
electric
electronics-menu
elektra
elementary
elements
elements-alexandria
elfinfo
elfio
elinks
elisa
elisa-player
elixir
elk
elmon
elog
elpa
emacs-apel
emacs-auto-complete
emacs-color-theme
emacs-common-w3m
emacs-haskell-mode
emacs-irsim-mode
emacs-magit
emacs-nxml-mode
emacs-rpm-spec-mode
emacs-slime
emacs-spice-mode
emacs-verilog-mode
emacs-yaml-mode
email2trac
embree
emerald
emerald-themes
emma
enblend
enca
enchant
endlessh
enet
engauge-digitizer
engrampa
enigma
enki
enlightenment
ensmallen
entertrack
entr
enunciate
enunciate (Re-review: enunciate-core-annotations)
environment-modules
eom
eot-utils
epel-release
epel-rpm-macros
ephemeral-port-reserve
epic5
epson-inkjet-printer-escpr
epson-inkjet-printer-escpr2
epstool
epydoc
epylog
eqntott
erfa
ergo
eric
erlang
erlang-amf
erlang-basho_metrics
erlang-basho_stats
erlang-bear
erlang-bitcask
erlang-cl
erlang-cluster_info
erlang-cowboy
erlang-ebloom
erlang-edown
erlang-egeoip
erlang-eleveldb
erlang-emmap
erlang-eper
erlang-epgsql
erlang-eradius
erlang-erlando
erlang-erlsom
erlang-erlsyslog
erlang-erlydtl
erlang-esasl
erlang-etap
erlang-folsom
erlang-gen_leader
erlang-getopt
erlang-gettext
erlang-gproc
erlang-gtknode
erlang-ibrowse
erlang-jiffy
erlang-js
erlang-lager
erlang-lfe
erlang-log4erl
erlang-luke
erlang-meck
erlang-merge_index
erlang-mimetypes
erlang-misultin
erlang-mochiweb
erlang-mustache
erlang-neotoma
erlang-oauth
erlang-pgsql
erlang-poolboy
erlang-protobuffs
erlang-ranch
erlang-rebar
erlang-riak_api
erlang-riak_client
erlang-riak_control
erlang-riak_core
erlang-riak_err
erlang-riak_kv
erlang-riak_pb
erlang-riak_pipe
erlang-riak_search
erlang-riak_sysmon
erlang-riaknostic
erlang-rpm-macros
erlang-sd_notify
erlang-sext
erlang-sidejob
erlang-skerl
erlang-snappy
erlang-webmachine
erlang-xmlrpc
erofs-utils
esc
esmi_ib_library
esmtp
esorex
esound
espresso
espresso-ab
esptool
esteidcerts
et
etcd
etckeeper
ethstatus
ettercap
euca2ools
eureka
eurephia
evas-generic-loaders
evas_generic_loaders
evemu
eventlog
eventviews
evolution-bogofilter
evolution-exchange
evtest
exaile
examiner
exciting
execstack
exfatprogs
exif
exim
exim-doc
exiv2
exo
exodusii
exonerate
expat21
expatpp
expected
expliot
expresso
extra-cmake-modules
extrema
extremetuxracer
extundelete
eyesight
ez-ipupdate
ezmorph
ezstream
f21-backgrounds
f22-backgrounds
f23-backgrounds
f2c
f2fs-tools
f2py
f3
f30-backgrounds
f31-backgrounds
f32-backgrounds
f34-backgrounds
f35-backgrounds
f36-backgrounds
f37-backgrounds
f38-backgrounds
f39-backgrounds
f40-backgrounds
f41-backgrounds
fabric
facter
factory
faenza-icon-theme
faience-icon-theme
fail2ban
fakechroot
fakeroot
falkon
fancontrol-gui
fann
fapolicy-analyzer
farstream02
fasd
fast_float
fastback
fastd
fasterxml-oss-parent
fastfetch
fastlz
fastnetmon
fasttext
fastutil
fastx_toolkit
fatresize
fawkes
fbf-mukti-fonts
fbida
fbpanel
fbreader
fbrnch
fbterm
fbthrift
fcgi
fcgiwrap
fcitx
fcitx-anthy
fcitx-chewing
fcitx-cloudpinyin
fcitx-configtool
fcitx-fbterm
fcitx-hangul
fcitx-keyboard
fcitx-kkc
fcitx-libpinyin
fcitx-m17n
fcitx-qt5
fcitx-sunpinyin
fcitx-table-extra
fcitx-table-other
fcitx-ui-light
fcitx-unikey
fcl
fcode-utils
fctxpd
fdupes
featherpad
febootstrap
fedfind
fedfs-utils
fedmsg
fedocal
fedora-arm-installer
fedora-distro-aliases
fedora-dockerfiles
fedora-easy-karma
fedora-gather-easyfix
fedora-gnat-project-common
fedora-license-data
fedora-messaging
fedora-package-config-apt
fedora-package-config-smart
fedora-packager
fedora-repo-zdicts
fedora-repoquery
fedora-review
fedora-review-plugin-java
fedora-usermgmt
fedpkg
fedpkg-copr
fedpkg-minimal
fedrepo-req
fedrq
fedwatch
feedreader
fegistry
feh
fence-agents-epel
fennel
ferm
fernflower
festival
festival-freebsoft-utils
fetch-crl
fetch-crl3
fetchlog
fex
ffgtk
fflas-ffpack
ffmpeg
ffmpegthumbs
fftw
fftw2
ffuf
fgfs-base
fgrun
fido
fig2ps
figlet
file-roller
filebench
filedrop
filelight
filezilla
fillets-ng
fillets-ng-data
findbugs
findbugs-bcel
findthatword
fio
fips
fira-code-fonts
firebird
firefox-pkcs11-loader
firehol
firejail
firewalk
firmitas
firmware-addon-dell
firmware-extract
firmware-tools
fish
fishpoll
fizz
fkill-cli
flacon
flam3
flamegraph
flamerobin
flameshot
flamethrower
flamp
flann
flannel
flashrom
flasm
flatbuffers
flatpak-epel
flatpak-kcm
flatpak-module-tools
flatseal
flaw
flawfinder
flcluster
fldigi
fleet
fleet-commander
fleet-commander-admin
fleet-commander-client
flent
flexiport
flickcurl
flies-python-client
flim
flintqs
flite
fllog
flnet
flopgen
florence
florist
flow-tools
flpsed
flr
flrig
fltk
fluent-bit
fluid
fluid-soundfont
fluidsynth
flumotion
fluxbox
fluxcapacitor
flwkey
flxmlrpc
fmf
fmt
fmtools
fntsample
foliate
folly
folly-rpm-macros
fontawesome-fonts
fontbox
fontdump
fontforge
fontopia
fontpackages
fonts-compare
fonttools
foomuuri
fop
forbidden-apis
forge-srpm-macros
fortune-mod
fossil
fotoxx
foundation-icons-fonts
fourterm
foxtrotgps
fpart
fpaste
fpaste-server
fpc
fpc-srpm-macros
fpdns
fped
fping
fpm2
fprobe-ulog
francis
free42
freeDiameter
freealut
freecad
freeciv
freecolor
freedv
freefem++
freefont
freehdl
freehoo
freeimage
freeipa-desktop-profile
freeipa-fas
freemarker
freeradius-client
freerdp
freerdp1.2
freerouting
freetds
freetennis
freetiger
freewrl
freexl
freeze
frei0r-plugins
freight
frepple
freshmaker
fribidi
frobby
frog-protocols
frozen-bubble
fs_mark
fscrypt
fslint
fstransform
fstrm
fsverity-utils
fsvs
fswatch
fswebcam
ftgl
ftnchek
ftop
ftplib
fts
fts-monitoring
fts-mysql
fts-rest
fts-rest-client
ftxui
func
funionfs
funnel
funtools
fuse
fuse-encfs
fuse-gmailfs
fuse-python
fuse-sshfs
fuse-zip
fuse2fs
fuse3
fusion-icon
fusioninventory-agent
future
futuresql
fuzza
fvkbd
fvwm
fwknop
fwknop-gui
fwrestart
fwsnort
fwupd-epel
fx
fx-completion
fxdiv
fxload
fyi
fzf
g-wrap
g2clib
ga
gabedit
gaim-gadugadu
gajim
galera
gallery2
gallery3
gallery3-openid
gamazons
gambas
gambit-c
game-music-emu
gamemode
gammu
ganglia
gant
ganymed-ssh2
garcon
garmindev
garmintools
gasnet
gaupol
gavl
gazebo
gball
gbirthday
gc
gcab
gcal
gcc-epel
gccxml
gcin
gcombust
gconfmm26
gcovr
gcx
gdal
gdata-sharp
gdb-exploitable
gdb-heap
gdcm
gdisk
gdl
gdlmm
gds2pov
gdu
geany
geany-plugins
geany-themes
gearbox
geard
gearmand
gecode
geda-docs
geda-examples
geda-gaf
geda-gattrib
geda-gnetlist
geda-gschem
geda-gsymcheck
geda-symbols
geda-utils
gedit
gedit-color-schemes
gedit-control-your-tabs
gedit-plugin-editorconfig
gedit-plugins
gedit-vala
gedit-valencia
gen-oath-safe
genbackupdata
genders
general
generatorrunner
generic-jms-ra
gengetopt
gensio
gentoo
geoip-geolite
geoipupdate
geolite2
geome
geomview
geos
gerbera
gerbv
geronimo-ejb
geronimo-interceptor
geronimo-jcache
geronimo-jcdi-1.0-api
geronimo-jpa
geronimo-validation
getdata
getdns
getmail
gf2x
gfal
gfal2
gfal2-plugin-xrootd
gfal2-python
gfal2-util
gfalFS
gfan
gflags
gfm
gftp
ggobi
ggz-base-libs
ggz-client-libs
ggz-gtk-client
ghc
ghc-Agda
ghc-Diff
ghc-GLURaw
ghc-GLUT
ghc-Glob
ghc-HTTP
ghc-HUnit
ghc-HaXml
ghc-HsOpenSSL
ghc-HsYAML
ghc-IfElse
ghc-JuicyPixels
ghc-MissingH
ghc-MonadCatchIO-transformers
ghc-ObjectName
ghc-OpenGL
ghc-OpenGLRaw
ghc-QuickCheck
ghc-SHA
ghc-STMonadTrans
ghc-SafeSemaphore
ghc-StateVar
ghc-X11
ghc-X11-xft
ghc-aeson
ghc-aeson-pretty
ghc-aeson-yaml
ghc-annotated-wl-pprint
ghc-ansi-terminal
ghc-ansi-wl-pprint
ghc-appar
ghc-asn1-encoding
ghc-asn1-parse
ghc-asn1-types
ghc-assoc
ghc-async
ghc-atomic-write
ghc-attoparsec
ghc-attoparsec-conduit
ghc-attoparsec-enumerator
ghc-attoparsec-iso8601
ghc-auto-update
ghc-base-compat
ghc-base-compat-batteries
ghc-base-orphans
ghc-base-unicode-symbols
ghc-base16-bytestring
ghc-base64-bytestring
ghc-basement
ghc-bifunctors
ghc-binary
ghc-blaze-builder
ghc-blaze-builder-conduit
ghc-blaze-builder-enumerator
ghc-blaze-html
ghc-blaze-markup
ghc-bloomfilter
ghc-boxes
ghc-bugzilla-redhat
ghc-byteable
ghc-cabal-doctest
ghc-cached-json-file
ghc-cairo
ghc-call-stack
ghc-case-insensitive
ghc-cautious-file
ghc-cborg
ghc-cborg-json
ghc-cereal
ghc-cgi
ghc-charset
ghc-cheapskate
ghc-citeproc-hs
ghc-clock
ghc-cmark
ghc-cmdargs
ghc-cmdtheline
ghc-code-page
ghc-colour
ghc-comonad
ghc-concrete-typerep
ghc-conduit
ghc-conduit-extra
ghc-config-ini
ghc-connection
ghc-contravariant
ghc-cookie
ghc-crypto-api
ghc-cryptohash
ghc-cryptohash-md5
ghc-cryptohash-sha1
ghc-cryptohash-sha256
ghc-cryptonite
ghc-cryptonite-conduit
ghc-css-text
ghc-curl
ghc-data-default
ghc-data-default-class
ghc-data-default-instances-containers
ghc-data-default-instances-dlist
ghc-data-default-instances-old-locale
ghc-data-fix
ghc-data-hash
ghc-dataenc
ghc-date-cache
ghc-dbus
ghc-deepseq
ghc-deepseq-generics
ghc-derive
ghc-digest
ghc-distributive
ghc-dlist
ghc-doctemplates
ghc-doctest
ghc-dotgen
ghc-double-conversion
ghc-echo
ghc-ed25519
ghc-edit-distance
ghc-either
ghc-email-validate
ghc-enclosed-exceptions
ghc-entropy
ghc-enumerator
ghc-equivalence
ghc-exceptions
ghc-explicit-exception
ghc-extensible-exceptions
ghc-extra
ghc-fast-logger
ghc-feldspar-language
ghc-fgl
ghc-file-embed
ghc-filemanip
ghc-filepath-bytestring
ghc-filepattern
ghc-filtrable
ghc-fingertree
ghc-fixed
ghc-formatting
ghc-foundation
ghc-fsnotify
ghc-generic-deriving
ghc-geniplate
ghc-ghc-lib-parser
ghc-ghc-mtl
ghc-ghc-paths
ghc-gi-atk
ghc-gi-cairo
ghc-gi-gdk
ghc-gi-gdkpixbuf
ghc-gi-gio
ghc-gi-gmodule
ghc-gi-gtk
ghc-gi-harfbuzz
ghc-gi-ostree
ghc-gi-pango
ghc-gio
ghc-gitrev
ghc-glade
ghc-glib
ghc-graphviz
ghc-gtk
ghc-gtk3
ghc-gtksourceview2
ghc-hackage-security
ghc-haddock-library
ghc-hakyll
ghc-half
ghc-happstack-server
ghc-hashable
ghc-hashed-storage
ghc-hashtables
ghc-haskeline
ghc-haskell-lexer
ghc-haskell-src
ghc-haskell-src-exts
ghc-haskell-src-exts-util
ghc-haxr
ghc-highlighting-kate
ghc-hinotify
ghc-hint
ghc-hjsmin
ghc-hourglass
ghc-hs-bibutils
ghc-hslogger
ghc-hslua
ghc-hslua-module-text
ghc-hspec
ghc-hspec-core
ghc-hspec-discover
ghc-hspec-expectations
ghc-html
ghc-html-conduit
ghc-http-api-data
ghc-http-client
ghc-http-client-tls
ghc-http-common
ghc-http-conduit
ghc-http-date
ghc-http-directory
ghc-http-query
ghc-http-streams
ghc-http-types
ghc-http2
ghc-ieee754
ghc-indexed-traversable
ghc-infer-license
ghc-integer-logarithms
ghc-io-streams
ghc-iproute
ghc-iso8601-time
ghc-js-flot
ghc-js-jquery
ghc-json
ghc-koji
ghc-language-java
ghc-lens-family-core
ghc-libffi
ghc-libxml-sax
ghc-lifted-base
ghc-lrucache
ghc-lukko
ghc-maccatcher
ghc-megaparsec
ghc-memory
ghc-microlens
ghc-microlens-mtl
ghc-microlens-th
ghc-mime-types
ghc-mmap
ghc-mmorph
ghc-monad-control
ghc-monad-logger
ghc-monad-loops
ghc-monad-unify
ghc-monads-tf
ghc-mono-traversable
ghc-mtl
ghc-mwc-random
ghc-nats
ghc-network
ghc-network-bsd
ghc-network-byte-order
ghc-network-conduit
ghc-network-enumerator
ghc-network-uri
ghc-old-locale
ghc-old-time
ghc-openssl-streams
ghc-optparse-applicative
ghc-optparse-simple
ghc-pandoc-types
ghc-pango
ghc-parallel
ghc-parsec
ghc-parsec-numbers
ghc-parser-combinators
ghc-parsers
ghc-path
ghc-path-io
ghc-path-pieces
ghc-pattern-arrows
ghc-pcre-light
ghc-pem
ghc-persistent
ghc-persistent-sqlite
ghc-persistent-template
ghc-pipes
ghc-polyparse
ghc-pretty-simple
ghc-pretty-terminal
ghc-prettyprinter
ghc-prettyprinter-ansi-terminal
ghc-primitive
ghc-profunctors
ghc-psqueues
ghc-publicsuffixlist
ghc-pureMD5
ghc-quickcheck-io
ghc-random
ghc-refact
ghc-reflection
ghc-regex-applicative
ghc-regex-base
ghc-regex-compat
ghc-regex-pcre
ghc-regex-posix
ghc-regex-tdfa
ghc-repline
ghc-resolv
ghc-resource-pool
ghc-resourcet
ghc-retry
ghc-rfc5051
ghc-rio
ghc-rio-prettyprint
ghc-rpm-macros
ghc-rpm-nvr
ghc-safe
ghc-scientific
ghc-scotty
ghc-securemem
ghc-semigroupoids
ghc-semigroups
ghc-sendfile
ghc-serialise
ghc-setenv
ghc-setlocale
ghc-shakespeare
ghc-shakespeare-css
ghc-shakespeare-i18n
ghc-shakespeare-js
ghc-shelly
ghc-silently
ghc-simple-cabal
ghc-simple-cmd
ghc-simple-cmd-args
ghc-simple-prompt
ghc-simple-sendfile
ghc-skylighting
ghc-snap-core
ghc-snap-server
ghc-socks
ghc-split
ghc-srpm-macros-epel
ghc-stm
ghc-stm-chans
ghc-streaming-commons
ghc-strict
ghc-syb
ghc-system-fileio
ghc-system-filepath
ghc-tagged
ghc-tagsoup
ghc-tar
ghc-tar-conduit
ghc-tasty
ghc-tasty-hunit
ghc-tasty-quickcheck
ghc-temporary
ghc-terminal-size
ghc-terminfo
ghc-texmath
ghc-text
ghc-text-icu
ghc-text-manipulate
ghc-text-metrics
ghc-tf-random
ghc-th-abstraction
ghc-th-compat
ghc-th-expand-syns
ghc-th-lift
ghc-th-lift-instances
ghc-th-reify-many
ghc-these
ghc-threads
ghc-time-compat
ghc-time-locale-compat
ghc-tls
ghc-transformers
ghc-transformers-base
ghc-transformers-compat
ghc-typed-process
ghc-unbounded-delays
ghc-unicode-transforms
ghc-union-find
ghc-uniplate
ghc-unix-compat
ghc-unix-time
ghc-unliftio
ghc-unliftio-core
ghc-unordered-containers
ghc-uri-encode
ghc-utf8-string
ghc-uuid
ghc-uuid-types
ghc-vault
ghc-vector
ghc-vector-algorithms
ghc-vector-binary-instances
ghc-void
ghc-wai
ghc-wai-extra
ghc-warp
ghc-webkit
ghc-wl-pprint
ghc-wl-pprint-text
ghc-word8
ghc-x509
ghc-x509-store
ghc-x509-system
ghc-x509-validation
ghc-xdg-basedir
ghc-xdg-userdirs
ghc-xhtml
ghc-xml
ghc-xml-conduit
ghc-xml-types
ghc-xmonad-contrib
ghc-xss-sanitize
ghc-yaml
ghc-yesod
ghc-yesod-core
ghc-yesod-form
ghc-yesod-persistent
ghc-yesod-routes
ghc-zip-archive
ghc-zlib
ghc-zlib-bindings
ghc-zlib-conduit
ghc-zlib-enum
ghc8.2
ghc8.8
ghc9.0
ghc9.2
ghc9.4
ghc9.6
ghc9.8
ghcid
ghdl
ghex
ghmm
ghostwriter
gi-docgen
giblib
gif2png
gifsicle
gift
gift-gnutella
gift-openft
gigolo
gilmsg
gimp-dbp
gimp-dds-plugin
gimp-elsamuko
gimp-fourier-plugin
gimp-gap
gimp-high-pass-filter
gimp-layer-via-copy-cut
gimp-luminosity-masks
gimp-paint-studio
gimp-save-for-web
gimp-separate+
gimp-wavelet-denoise-plugin
gimpfx-foundry
ginac
ginfo
gio-sharp
gip
girara
gists
git
git-annex
git-bugzilla
git-cal
git-cola
git-credential-oauth
git-crypt
git-evtag
git-extras
git-filter-repo
git-ftp
git-lfs
git-octopus
git-publish
git-pull-request
git-repair
git-review
git-secret
git-subrepo
git-tools
git-xcleaner
git2cl
gitflow
gitg
github2fedmsg
gitklient
gitolite
gitolite3
gitosis
gitqlient
gitso
gitstats
gitweb-caching
givaro
gjots2
gkermit
gkeyfile-sharp
gkrellm
gkrellm-aclock
gkrellm-freq
gkrellm-moon
gkrellm-sun
gkrellm-top
gkrellm-volume
gksu-polkit
gl-117
gl2ps
glabels
glacier-cli
glade3
glances
glassfish-annotation-api
glassfish-ejb-api
glassfish-enterprise-concurrent
glassfish-enterprise-concurrent-api
glassfish-jax-rs-api
glassfish-jaxb-api
glassfish-legal
glassfish-master-pom
glassfish-saaj
glassfish-servlet-api
glassfish-toplink-essentials
glassfish-transaction-api
glassfish-websocket-api
glazedlists
gle
glew
glfw
glglobe
glib
glibmm24
glide
glimpse
glite-jobid-api-c
glite-jobid-api-cpp
glite-jobid-api-java
glite-lb-client
glite-lb-client-java
glite-lb-common
glite-lb-logger
glite-lb-logger-msg
glite-lb-server
glite-lb-state-machine
glite-lb-types
glite-lb-utils
glite-lb-ws-interface
glite-lbjp-common-db
glite-lbjp-common-gsoap-plugin
glite-lbjp-common-gss
glite-lbjp-common-jp-interface
glite-lbjp-common-log
glite-lbjp-common-maildir
glite-lbjp-common-server-bones
glite-lbjp-common-trio
glite-px-proxyrenewal
glite-security-trustmanager
glite-security-util-java
global
globus-authz
globus-authz-callout-error
globus-callout
globus-common
globus-core
globus-data-conversion
globus-duct-common
globus-duct-control
globus-duroc-common
globus-ftp-client
globus-ftp-control
globus-gass-cache
globus-gass-cache-program
globus-gass-copy
globus-gass-server-ez
globus-gass-transfer
globus-gatekeeper
globus-gfork
globus-gram-audit
globus-gram-client
globus-gram-client-tools
globus-gram-job-manager
globus-gram-job-manager-callout-error
globus-gram-job-manager-condor
globus-gram-job-manager-fork
globus-gram-job-manager-lsf
globus-gram-job-manager-pbs
globus-gram-job-manager-scripts
globus-gram-job-manager-setup-condor
globus-gram-job-manager-setup-fork
globus-gram-job-manager-setup-lsf
globus-gram-job-manager-setup-pbs
globus-gram-job-manager-setup-sge
globus-gram-job-manager-sge
globus-gram-job-manager-slurm
globus-gram-protocol
globus-gridftp-server
globus-gridftp-server-control
globus-gridmap-callout-error
globus-gridmap-eppn-callout
globus-gridmap-verify-myproxy-callout
globus-gsi-callback
globus-gsi-cert-utils
globus-gsi-credential
globus-gsi-openssl-error
globus-gsi-proxy-core
globus-gsi-proxy-ssl
globus-gsi-sysconfig
globus-gss-assist
globus-gssapi-error
globus-gssapi-gsi
globus-io
globus-libtool
globus-libxml2
globus-mp
globus-net-manager
globus-nexus
globus-openssl
globus-openssl-module
globus-proxy-utils
globus-rls-client
globus-rls-server
globus-rsl
globus-rsl-assist
globus-scheduler-event-generator
globus-simple-ca
globus-usage
globus-xio
globus-xio-gridftp-driver
globus-xio-gridftp-multicast
globus-xio-gsi-driver
globus-xio-pipe-driver
globus-xio-popen-driver
globus-xio-rate-driver
globus-xio-udt-driver
globus-xioperf
glog
glogg
glom
gloox
glpi
glpi-data-injection
glpi-mass-ocs-import
glpi-pdf
glpk
glslang
glue-schema
glue-validator
gluegen2
glump
glusterfs
glyphicons-halflings-fonts
glyphography-newscycle-fonts
glyphtracer
gmime
gmime30
gmock
gmpy
gmrun
gmsh
gn
gnaughty
gnochm
gnokii
gnome-abrt
gnome-applet-window-picker
gnome-applets
gnome-battery-bench
gnome-calendar
gnome-characters
gnome-chess
gnome-colors-icon-theme
gnome-common
gnome-desktop
gnome-desktop-sharp
gnome-doc-utils
gnome-epub-thumbnailer
gnome-firmware
gnome-flashback
gnome-gmail
gnome-icon-theme
gnome-keyring-sharp
gnome-libs
gnome-logs
gnome-maps
gnome-monitor-config
gnome-panel
gnome-python2-desktop
gnome-python2-extras
gnome-screensaver
gnome-screensaver-frogs
gnome-sharp
gnome-shell-extension-activities-configurator
gnome-shell-extension-appindicator
gnome-shell-extension-argos
gnome-shell-extension-caffeine
gnome-shell-extension-dash-to-dock
gnome-shell-extension-disconnect-wifi
gnome-shell-extension-do-not-disturb-button
gnome-shell-extension-freon
gnome-shell-extension-historymanager-prefix-search
gnome-shell-extension-iok
gnome-shell-extension-just-perfection
gnome-shell-extension-no-overview
gnome-shell-extension-no-topleft-hot-corner
gnome-shell-extension-openweather
gnome-shell-extension-panel-osd
gnome-shell-extension-pidgin
gnome-shell-extension-pop-shell
gnome-shell-extension-refresh-wifi
gnome-shell-extension-screen-autorotate
gnome-shell-extension-sound-output-device-chooser
gnome-shell-extension-suspend-button
gnome-shell-extension-sustmi
gnome-shell-extension-system-monitor-applet
gnome-shell-extension-topicons-plus
gnome-shell-extension-unite
gnome-shell-extension-vertical-workspaces
gnome-shell-extension-windowoverlay-icons
gnome-translate
gnome-vfsmm26
gns3-gui
gns3-net-converter
gns3-server
gnu-free-fonts
gnu-smalltalk
gnubik
gnucap
gnucash
gnucash-docs
gnuchess
gnucobol
gnudos
gnugo
gnulib
gnumeric
gnupg-pkcs11-scd
gnupg1
gnupg2
gnuplot
gnuplot-py
gnuplot44
gnuradio
gnusim8085
gnustep-back
gnustep-base
gnustep-examples
gnustep-gui
gnustep-make
gnutls30
go-bindata
go-compilers
go-rpm-macros-epel
goaccess
goaltdns
gobby
gobby05
gobuster
gocomplete
gocr
goddi
godot
gofed
gofer
goffice
goffice08
gogoc
golang
golang-bazil-fuse
golang-bitbucket-creachadair-shell
golang-bitbucket-kardianos-osext
golang-bitbucket-ww-goautoneg
golang-bug-serial-1
golang-cloud-google-cloudtasks
golang-cloud-google-compute-metadata
golang-cloud-google-pubsub
golang-cloud-google-spanner
golang-cloud-google-storage
golang-dario-mergo
golang-etcd-bbolt
golang-filippo-edwards25519
golang-github-10gen-openssl
golang-github-3rf-mongo-lint
golang-github-3th1nk-cidr
golang-github-AdRoll-goamz
golang-github-Azure-azure-sdk-for-go
golang-github-BurntSushi-toml
golang-github-DATA-DOG-go-sqlmock
golang-github-DataDog-datadog-go
golang-github-Jeffail-gabs
golang-github-MakeNowJust-heredoc
golang-github-Masterminds-semver
golang-github-Masterminds-vcs
golang-github-RangelReale-osin
golang-github-RangelReale-osincli
golang-github-SAP-go-hdb
golang-github-SeanDolphin-bqschema
golang-github-SermoDigital-jose
golang-github-Shopify-sarama
golang-github-Shopify-toxiproxy
golang-github-Sirupsen-logrus
golang-github-Unknwon-goconfig
golang-github-VividCortex-ewma
golang-github-aaronjanse-pty
golang-github-abbot-go-http-auth
golang-github-acarl005-stripansi
golang-github-agext-levenshtein
golang-github-agl-ed25519
golang-github-ahmetb-linq-3
golang-github-akamensky-argparse
golang-github-akrennmair-gopcap
golang-github-akutz-gosync
golang-github-akutz-memconn
golang-github-alecthomas-assert-2
golang-github-alecthomas-kingpin2
golang-github-alecthomas-kong
golang-github-alecthomas-participle2
golang-github-alecthomas-repr
golang-github-alecthomas-units
golang-github-alexflint-filemutex
golang-github-alexflint-scalar
golang-github-altree-bigfloat
golang-github-andreasbriese-bbloom
golang-github-andrew-d-termutil
golang-github-andybalholm-brotli
golang-github-anmitsu-shlex
golang-github-antchfx-jsonquery
golang-github-antchfx-xpath
golang-github-antihax-optional
golang-github-apparentlymart-textseg-15
golang-github-appc-spec
golang-github-armon-circbuf
golang-github-armon-go-metrics
golang-github-armon-go-proxyproto
golang-github-armon-go-radix
golang-github-armon-gomdb
golang-github-armon-radix
golang-github-aryann-difflib
golang-github-asaskevich-eventbus
golang-github-asaskevich-govalidator
golang-github-auth0-go-jwt-middleware
golang-github-avast-retry
golang-github-aws-aws-sdk-go
golang-github-aws-sdk
golang-github-awslabs-aws-multi-module-repository-tools
golang-github-azure-ntlmssp
golang-github-badgerodon-peg
golang-github-benbjohnson-clock
golang-github-beorn7-perks
golang-github-bettercap-gatt
golang-github-bettercap-nrf24
golang-github-bettercap-readline
golang-github-bettercap-recording
golang-github-bgentry-speakeasy
golang-github-billziss-gh-cgofuse
golang-github-bitly-simplejson
golang-github-blang-semver
golang-github-bmatcuk-doublestar-4
golang-github-bmizerany-assert
golang-github-bmizerany-pat
golang-github-bmizerany-perks
golang-github-bobesa-domain-util
golang-github-boltdb-bolt
golang-github-boombuler-barcode
golang-github-bradfitz-gomemcache
golang-github-bradfitz-http2
golang-github-brocaar-chirpstack-api
golang-github-brunoscheufler-aws-ecs-metadata
golang-github-bruth-assert
golang-github-bshuster-repo-logrus-logstash-hook
golang-github-bsphere-le
golang-github-bugsnag-bugsnag-go
golang-github-bugsnag-panicwrap
golang-github-burntsushi-toml
golang-github-burntsushi-toml-test
golang-github-bwesterb-ristretto
golang-github-cactus-statsd-client
golang-github-casbin-2
golang-github-cenkalti-backoff
golang-github-cenkalti-backoff4
golang-github-cespare-xxhash
golang-github-cespare-xxhash2
golang-github-charlievieth-fastwalk
golang-github-checkpoint-restore-criu
golang-github-cheggaaa-pb
golang-github-chifflier-nfqueue
golang-github-chrismalek-oktasdk-go
golang-github-christrenkamp-goxpath
golang-github-chromedp
golang-github-chromedp-cdproto
golang-github-chzyer-readline
golang-github-chzyer-test
golang-github-circonus-labs-circonus-gometrics
golang-github-circonus-labs-circonusllhist
golang-github-clbanning-x2j
golang-github-cloudflare-backoff
golang-github-cloudfoundry-incubator-candiedyaml
golang-github-cockroachdb-cmux
golang-github-cockroachdb-cockroach-go
golang-github-cockroachdb-logtags
golang-github-cockroachdb-redact
golang-github-codegangsta-cli
golang-github-codegangsta-inject
golang-github-codegangsta-negroni
golang-github-collectd-go-collectd
golang-github-common-nighthawk-figure
golang-github-containerd-btrfs
golang-github-containerd-console
golang-github-containerd-fifo
golang-github-containerd-runc
golang-github-containerd-typeurl
golang-github-coreos-gexpect
golang-github-coreos-go-etcd
golang-github-coreos-go-iptables
golang-github-coreos-go-log
golang-github-coreos-go-oidc
golang-github-coreos-go-semver
golang-github-coreos-go-systemd
golang-github-coreos-iptables
golang-github-coreos-pkg
golang-github-coreos-semver
golang-github-coreos-systemd
golang-github-cpuguy83-go-md2man
golang-github-cpuguy83-md2man
golang-github-cpuguy83-md2man-epel
golang-github-creack-goselect
golang-github-creack-pty
golang-github-cyphar-filepath-securejoin
golang-github-d2g-dhcp4
golang-github-d2g-dhcp4client
golang-github-d2g-hardwareaddr
golang-github-d5-tengo-2
golang-github-datadog
golang-github-davecgh-go-spew
golang-github-davecgh-spew
golang-github-daviddengcn-go-colortext
golang-github-deckarep-set
golang-github-denisenkom-go-mssqldb
golang-github-dennwc-base
golang-github-dennwc-btrfs
golang-github-dennwc-graphql
golang-github-dennwc-ioctl
golang-github-dennwc-varint
golang-github-denverdino-aliyungo
golang-github-dghubble-oauth1
golang-github-dghubble-sessions
golang-github-dghubble-sling
golang-github-dghubble-twitter
golang-github-dgnorton-goback
golang-github-dgraph-io-badger
golang-github-dgraph-io-ristretto
golang-github-dgrijalva-jwt
golang-github-dgrijalva-jwt-go
golang-github-digitalocean-godo
golang-github-dimchansky-utfbom
golang-github-dlclark-regexp2
golang-github-dnaeon-vcr
golang-github-docker-connections
golang-github-docker-credential-helpers
golang-github-docker-events
golang-github-docker-go
golang-github-docker-go-connections
golang-github-docker-go-units
golang-github-docker-libcontainer
golang-github-docker-libkv
golang-github-docker-libtrust
golang-github-docker-spdystream
golang-github-docker-units
golang-github-docopt
golang-github-docopt-docopt-go
golang-github-duosecurity-duo_api_golang
golang-github-dustin-go-humanize
golang-github-dustin-humanize
golang-github-dvsekhvalnov-jose2go
golang-github-eapache-go-resiliency
golang-github-eapache-queue
golang-github-eapache-resiliency
golang-github-eapache-xerial-snappy
golang-github-eclesh-welford
golang-github-edoardottt-golazy
golang-github-edsrzf-mmap
golang-github-elazarl-go-bindata-assetfs
golang-github-elazarl-goproxy
golang-github-emicklei-go-restful
golang-github-emicklei-proto
golang-github-emirpasic-gods
golang-github-endophage-gotuf
golang-github-erikstmartin-testdb
golang-github-errors
golang-github-etcd-io-gofail
golang-github-evanphx-json-patch
golang-github-evanw-esbuild
golang-github-evilsocket-islazy
golang-github-facebook-time
golang-github-fatih-color
golang-github-fatih-pool
golang-github-fatih-set
golang-github-fatih-structs
golang-github-fd0-termstatus
golang-github-felixge-httpsnoop
golang-github-fernet
golang-github-form3tech-oss-jwt
golang-github-fortytw2-leaktest
golang-github-franela-goblin
golang-github-frankban-quicktest
golang-github-fsnotify
golang-github-fsouza-go-dockerclient
golang-github-fullsailor-pkcs7
golang-github-fvbommel-sortorder
golang-github-garyburd-redigo
golang-github-gdamore-encoding
golang-github-gdamore-optopia
golang-github-gdamore-tcell
golang-github-gdamore-tcell-2
golang-github-gddo
golang-github-gengo-grpc-gateway
golang-github-getsentry-raven-go
golang-github-geziyor
golang-github-ghodss-yaml
golang-github-gin-contrib-cors
golang-github-gin-contrib-sse
golang-github-gin-contrib-static
golang-github-git-gcfg
golang-github-glacjay-goini
golang-github-globalsign-mgo
golang-github-glog
golang-github-go-asn1-ber-asn1-ber
golang-github-go-errors-error
golang-github-go-fsnotify-fsnotify
golang-github-go-ini-ini
golang-github-go-ldap-ldap
golang-github-go-mgo-mgo
golang-github-go-sql-driver-mysql
golang-github-go-tomb-tomb
golang-github-gobuffalo-logger
golang-github-gobuffalo-packd
golang-github-gobwas-httphead
golang-github-gobwas-ws
golang-github-gocomply-scap
golang-github-gocql
golang-github-gocql-gocql
golang-github-godbus-dbus
golang-github-gofrs-flock
golang-github-gofrs-uuid
golang-github-gogo-protobuf
golang-github-golang-appengine
golang-github-golang-glog
golang-github-golang-groupcache
golang-github-golang-sys
golang-github-golang-time
golang-github-gomodule-redigo
golang-github-gonum-blas
golang-github-gonum-floats
golang-github-gonum-graph
golang-github-gonum-internal
golang-github-gonum-lapack
golang-github-gonum-matrix
golang-github-google-btree
golang-github-google-cmdtest
golang-github-google-cmp
golang-github-google-go-cmp
golang-github-google-go-genproto
golang-github-google-go-github
golang-github-google-go-querystring
golang-github-google-gofuzz
golang-github-google-gopacket
golang-github-google-pprof
golang-github-google-querystring
golang-github-google-renameio
golang-github-google-safehtml
golang-github-google-shlex
golang-github-google-uuid
golang-github-googleapis-enterprise-certificate-proxy
golang-github-googleapis-gnostic
golang-github-gookit-color
golang-github-goraft-raft
golang-github-gorilla-context
golang-github-gorilla-csrf
golang-github-gorilla-handlers
golang-github-gorilla-mux
golang-github-gorilla-schema
golang-github-gorilla-securecookie
golang-github-gorilla-sessions
golang-github-gorilla-websocket
golang-github-graph-gophers-graphql
golang-github-graylog2-gelf
golang-github-groupcache
golang-github-grpc-ecosystem-go-grpc-prometheus
golang-github-grpc-ecosystem-grpc-gateway
golang-github-grpc-grpc-go
golang-github-guelfey-godbus
golang-github-hailocab-go-hostpool
golang-github-hailocab-hostpool
golang-github-hanwen-fuse-2
golang-github-hashicorp-cleanhttp
golang-github-hashicorp-consul-migrate
golang-github-hashicorp-errwrap
golang-github-hashicorp-go-checkpoint
golang-github-hashicorp-go-cleanhttp
golang-github-hashicorp-go-hclog
golang-github-hashicorp-go-immutable-radix
golang-github-hashicorp-go-memdb
golang-github-hashicorp-go-msgpack
golang-github-hashicorp-go-multierror
golang-github-hashicorp-go-plugin
golang-github-hashicorp-go-retryablehttp
golang-github-hashicorp-go-rootcerts
golang-github-hashicorp-go-sockaddr
golang-github-hashicorp-go-syslog
golang-github-hashicorp-go-uuid
golang-github-hashicorp-golang-lru
golang-github-hashicorp-hcl
golang-github-hashicorp-hil
golang-github-hashicorp-immutable-radix
golang-github-hashicorp-logutils
golang-github-hashicorp-lru
golang-github-hashicorp-lru-2
golang-github-hashicorp-mdns
golang-github-hashicorp-memberlist
golang-github-hashicorp-memdb
golang-github-hashicorp-multierror
golang-github-hashicorp-net-rpc-msgpackrpc
golang-github-hashicorp-raft
golang-github-hashicorp-raft-boltdb
golang-github-hashicorp-raft-mdb
golang-github-hashicorp-rootcerts
golang-github-hashicorp-scada-client
golang-github-hashicorp-serf
golang-github-hashicorp-syslog
golang-github-hashicorp-uuid
golang-github-hashicorp-version
golang-github-hashicorp-yamux
golang-github-hawkular-hawkular-client-go
golang-github-hbakhtiyor-strsim
golang-github-hdrhistogram
golang-github-hexops-gotextdiff
golang-github-howeyc-gopass
golang-github-hsiafan-glow
golang-github-hsiafan-vlog
golang-github-huandu-xstrings
golang-github-hugelgupf-socketpair
golang-github-hydrogen18-memlistener
golang-github-ianbruene-difflib
golang-github-iancoleman-strcase
golang-github-ianlancetaylor-demangle
golang-github-imdario-mergo
golang-github-inconshreveable-go-vhost
golang-github-inconshreveable-log15
golang-github-inconshreveable-mousetrap
golang-github-inconshreveable-muxado
golang-github-inconshreveable-vhost
golang-github-influxdata-influxdb1-client
golang-github-influxdb-go-cache
golang-github-influxdb-gomdb
golang-github-influxdb-hyperleveldb-go
golang-github-influxdb-influxdb
golang-github-influxdb-rocksdb
golang-github-ishidawataru-sctp
golang-github-jacobsa-oglematchers
golang-github-jarcoal-httpmock
golang-github-jba-printsrc
golang-github-jcmturner-aescts
golang-github-jcmturner-dnsutils
golang-github-jcmturner-gofork
golang-github-jcmturner-goidentity
golang-github-jefferai-jsonx
golang-github-jessevdk-flags
golang-github-jessevdk-go-flags
golang-github-jfrazelle-go
golang-github-jinzhu-gorm
golang-github-jinzhu-inflection
golang-github-jinzhu-now
golang-github-jlaffaye-ftp
golang-github-jmespath
golang-github-jmespath-go-jmespath
golang-github-jmhodges-clock
golang-github-jmhodges-levigo
golang-github-johncgriffin-overflow
golang-github-joho-godotenv
golang-github-jonboulle-clockwork
golang-github-josharian-intern
golang-github-josharian-native
golang-github-jpillora-ansi
golang-github-jpillora-backoff
golang-github-jpillora-requestlog
golang-github-jpillora-sizestr
golang-github-jpillora-tld
golang-github-jsimonetti-rtnetlink
golang-github-json-iterator
golang-github-jtolds-gls
golang-github-juju-ratelimit
golang-github-julienschmidt-httprouter
golang-github-junegunn-shellwords
golang-github-jwt-4
golang-github-k0kubun-ansi
golang-github-kardianos-osext
golang-github-karlseguin-ccache
golang-github-karlseguin-expect
golang-github-karrick-godirwalk
golang-github-karrick-golf
golang-github-kballard-go-shellquote
golang-github-kballard-shellquote
golang-github-kdar-factorlog
golang-github-kevinburke-ssh-config
golang-github-keybase-go-crypto
golang-github-kimor79-gollectd
golang-github-kisielk-sqlstruct
golang-github-kit-log
golang-github-klauspost-compress
golang-github-klauspost-cpuid
golang-github-klauspost-crc32
golang-github-knetic-govaluate
golang-github-knieriem-markdown
golang-github-kolo-xmlrpc
golang-github-kr-binarydist
golang-github-kr-fs
golang-github-kr-pretty
golang-github-kr-pty
golang-github-kr-text
golang-github-kraman-libcontainer
golang-github-kubernetes-heapster
golang-github-kylelemons-godebug
golang-github-labstack-gommon
golang-github-lair-framework-nessus
golang-github-lair-framework-nmap
golang-github-leodido-urn
golang-github-liamg-scout
golang-github-liamg-tml
golang-github-lib-pq
golang-github-linkedin-goavro
golang-github-logfmt
golang-github-logr
golang-github-logr-stdr
golang-github-logr-zapr
golang-github-logrusorgru-aurora
golang-github-lpabon-godbc
golang-github-lsegal-gucumber
golang-github-lucasb-eyer-colorful
golang-github-lunixbochs-vtclean
golang-github-m-mizutani-urlscan
golang-github-magiconair-properties
golang-github-mailru-easyjson
golang-github-malfunkt-iprange
golang-github-markbates-errx
golang-github-markbates-oncer
golang-github-markbates-safe
golang-github-martini
golang-github-masterminds-goutils
golang-github-masterminds-semver
golang-github-masterzen-simplexml
golang-github-masterzen-winrm
golang-github-matoous-nanoid
golang-github-matrix-org-gomatrix
golang-github-mattn-colorable
golang-github-mattn-go-isatty
golang-github-mattn-go-runewidth
golang-github-mattn-go-sqlite3
golang-github-mattn-isatty
golang-github-mattn-runewidth
golang-github-mattn-shellwords
golang-github-mattn-sqlite3
golang-github-matttproud-golang_protobuf_extensions
golang-github-matttproud-protobuf-extensions
golang-github-matttproud-protobuf-extensions2
golang-github-maxatome-testdeep
golang-github-mdlayher-ethtool
golang-github-mdlayher-netlink
golang-github-mdlayher-socket
golang-github-mesos-mesos-go
golang-github-mgutz-ansi
golang-github-mgutz-logxi
golang-github-michaelklishin-rabbit-hole
golang-github-miekg-dns
golang-github-miekg-pkcs11
golang-github-milochristiansen-axis2
golang-github-milochristiansen-lua
golang-github-mistifyio-go-zfs
golang-github-mistifyio-zfs
golang-github-mitchellh-cli
golang-github-mitchellh-colorstring
golang-github-mitchellh-copystructure
golang-github-mitchellh-go-homedir
golang-github-mitchellh-go-testing-interface
golang-github-mitchellh-go-wordwrap
golang-github-mitchellh-goamz
golang-github-mitchellh-hashstructure
golang-github-mitchellh-hashstructure-2
golang-github-mitchellh-homedir
golang-github-mitchellh-mapstructure
golang-github-mitchellh-reflectwalk
golang-github-mitchellh-wordwrap
golang-github-moby-ipvs
golang-github-moby-locker
golang-github-moby-patternmatcher
golang-github-moby-spdystream
golang-github-moby-sys
golang-github-moby-term
golang-github-mock
golang-github-modern-concurrent
golang-github-modern-reflect2
golang-github-mohae-deepcopy
golang-github-montanaflynn-stats
golang-github-morikuni-aec
golang-github-mreiferson-go-httpclient
golang-github-mreiferson-httpclient
golang-github-mrunalp-fileutils
golang-github-mtrmac-gpgme
golang-github-muesli-crunchy
golang-github-mwitkow-conntrack
golang-github-mxk-flowrate
golang-github-mxk-go-flowrate
golang-github-nats-io-nuid
golang-github-nbutton23-zxcvbn
golang-github-ncruces-strftime
golang-github-ncw-swift
golang-github-networkplumbing-nft
golang-github-nilslice-protolock
golang-github-noahdesu-go-ceph
golang-github-npat-efault-poller
golang-github-ns3777k-shodan
golang-github-nsf-termbox-go
golang-github-nxadm-tail
golang-github-nytimes-gziphandler
golang-github-oklog-run
golang-github-oklog-ulid
golang-github-olekukonko-tablewriter
golang-github-olekukonko-ts
golang-github-olivere-elastic
golang-github-olivere-env
golang-github-onsi-ginkgo
golang-github-onsi-gomega
golang-github-op-logging
golang-github-openapi-errors
golang-github-openapi-jsonpointer
golang-github-openapi-swag
golang-github-opencontainers-runtime-spec
golang-github-opencontainers-selinux
golang-github-opencontainers-specs
golang-github-openshift-go-json-rest
golang-github-openshift-go-systemd
golang-github-openshift-openshift-sdn
golang-github-opentracing
golang-github-opentracing-contrib-stdlib
golang-github-ory-dockertest
golang-github-oschwald-maxminddb-golang
golang-github-panjf2000-ants
golang-github-parnurzeal-gorequest
golang-github-patrickmn-cache
golang-github-patrickmn-go-cache
golang-github-paulrosania-go-charset
golang-github-pborman-getopt
golang-github-pelletier-go-buffruneio
golang-github-pelletier-go-toml
golang-github-pelletier-toml
golang-github-pelletier-toml-2
golang-github-performancecopilot-speed
golang-github-petar-GoLLRB
golang-github-peterbourgon-diskv
golang-github-peterbourgon-ff-3
golang-github-peterh-liner
golang-github-phayes-freeport
golang-github-phayes-permbits
golang-github-philhofer-fwd
golang-github-pierrec-cmdflag
golang-github-pingcap-errors
golang-github-piprate-json-gold
golang-github-pjbgf-sha1cd
golang-github-pkg-diff
golang-github-pkg-errors
golang-github-pkg-profile
golang-github-pkg-sftp
golang-github-pkg-term
golang-github-playground-assert-2
golang-github-pmezard-difflib
golang-github-pmezard-go-difflib
golang-github-posener-complete
golang-github-pquerna-ffjson
golang-github-pquerna-otp
golang-github-projectdiscovery-cdncheck
golang-github-projectdiscovery-gologger
golang-github-projectdiscovery-httpx
golang-github-projectdiscovery-mapcidr
golang-github-projectdiscovery-rawhttp
golang-github-projectdiscovery-retryabledns
golang-github-projectdiscovery-retryablehttp
golang-github-prometheus
golang-github-prometheus-alertmanager
golang-github-prometheus-client
golang-github-prometheus-client-model
golang-github-prometheus-client_golang
golang-github-prometheus-client_model
golang-github-prometheus-common
golang-github-prometheus-node-exporter
golang-github-prometheus-node_exporter
golang-github-prometheus-procfs
golang-github-prometheus-prometheus
golang-github-protobuf
golang-github-puerkitobio-urlesc
golang-github-racker-perigee
golang-github-racksec-srslog
golang-github-rackspace-gophercloud
golang-github-rakyll-globalconf
golang-github-rakyll-pb
golang-github-rakyll-statik
golang-github-rcrowley-go-metrics
golang-github-rcrowley-metrics
golang-github-reconquest-barely
golang-github-reconquest-loreley
golang-github-redteampentesting-monsoon
golang-github-reiver-oi
golang-github-reiver-telnet
golang-github-remyoudompheng-bigfft
golang-github-resty
golang-github-revel-config
golang-github-revel-log15
golang-github-revel-pathtree
golang-github-rfjakob-eme
golang-github-rivo-uniseg
golang-github-rogpeppe-charset
golang-github-rogpeppe-fastuuid
golang-github-rogpeppe-internal
golang-github-rs-xid
golang-github-russross-blackfriday
golang-github-rwcarlsen-goexif
golang-github-ryanuber-columnize
golang-github-ryanuber-go-glob
golang-github-safchain-ethtool
golang-github-sagikazarmark-slog-shim
golang-github-saintfish-chardet
golang-github-samalba-dockerclient
golang-github-samuel-go-zookeeper
golang-github-saracen-walker
golang-github-scaleway-sdk
golang-github-sean-seed
golang-github-seancfoley-bintree
golang-github-seancfoley-ipaddress
golang-github-seccomp-libseccomp-golang
golang-github-sergi-diff
golang-github-serialx-hashring
golang-github-sethgrid-pester
golang-github-sgreben-flagvar
golang-github-shellcode33-vm-detection
golang-github-shiena-ansicolor
golang-github-shirou-gopsutil
golang-github-shirou-gopsutil3
golang-github-shirou-gopsutil4
golang-github-shopspring-decimal
golang-github-shurcooL-sanitized_anchor_name
golang-github-sirupsen-logrus
golang-github-skarademir-naturalsort
golang-github-skratchdot-open-golang
golang-github-skynetservices-skydns
golang-github-smarterclayton-go-systemd
golang-github-smartystreets-assertions
golang-github-smartystreets-go-aws-auth
golang-github-smartystreets-goconvey
golang-github-snappy
golang-github-songgao-water
golang-github-sony-gobreaker
golang-github-spacejam-loghisto
golang-github-spacemonkeygo-flagfile
golang-github-spacemonkeygo-spacelog
golang-github-spf13-afero
golang-github-spf13-cast
golang-github-spf13-cobra
golang-github-spf13-jWalterWeatherman
golang-github-spf13-pflag
golang-github-spf13-viper
golang-github-sql-civil
golang-github-sql-driver-mysql
golang-github-sqshq-sampler
golang-github-sstarcher-go-okta
golang-github-stack
golang-github-stacktitan-smb
golang-github-stathat
golang-github-stathat-go
golang-github-stefanberger-pkcs11uri
golang-github-stevvooe-resumable
golang-github-stoewer-strcase
golang-github-streadway-amqp
golang-github-streadway-handy
golang-github-stretchr-objx
golang-github-stretchr-testify
golang-github-syndtr-gocapability
golang-github-syndtr-goleveldb
golang-github-syndtr-gosnappy
golang-github-task-slim-sprig
golang-github-task-slim-sprig3
golang-github-tchap-go-patricia
golang-github-tchap-patricia
golang-github-temoto-robotstxt
golang-github-tent-http-link-go
golang-github-termie-shutil
golang-github-test-deep
golang-github-tg-gosortmap
golang-github-tklauser-numcpus
golang-github-tklauser-sysconf
golang-github-tomasen-realip
golang-github-tomnomnom-rawhttp
golang-github-tonistiigi-archvariant
golang-github-tonistiigi-rosetta
golang-github-tonistiigi-units
golang-github-tonistiigi-vt100
golang-github-tonnerre-golang-pretty
golang-github-transparency-dev-merkle
golang-github-ttacon-chalk
golang-github-tv42-httpunix
golang-github-twinj-uuid
golang-github-twmb-murmur3
golang-github-ugorji
golang-github-ugorji-go
golang-github-urfave-cli
golang-github-urfave-negroni
golang-github-valyala-bytebufferpool
golang-github-valyala-fasthttp
golang-github-valyala-fastjson
golang-github-valyala-fasttemplate
golang-github-valyala-tcplisten
golang-github-vaughan0-go-ini
golang-github-vbatts-tar-split
golang-github-vishvananda-netlink
golang-github-vishvananda-netns
golang-github-vividcortex-gohistogram
golang-github-vjeantet-asn1-ber
golang-github-vjeantet-ldapserver
golang-github-vmihailenco-tagparser-2
golang-github-vmware-govcloudair
golang-github-vtolstov-ioctl
golang-github-wsxiaoys-terminal
golang-github-xeipuuv-gojsonpointer
golang-github-xeipuuv-gojsonreference
golang-github-xeipuuv-gojsonschema
golang-github-xeonx-timeago
golang-github-xhit-str2duration
golang-github-xhit-str2duration2
golang-github-xiang90-probing
golang-github-xlab-handysort
golang-github-xlab-treeprint
golang-github-xlzd-gotp
golang-github-xo-terminfo
golang-github-xrash-smetrics
golang-github-yl2chen-cidranger
golang-github-yuin-goldmark
golang-github-yuin-goldmark-meta
golang-github-yvasiyarov-go-metrics
golang-github-yvasiyarov-gorelic
golang-github-yvasiyarov-metrics
golang-github-yvasiyarov-newrelic-platform
golang-github-yvasiyarov-newrelic_platform_go
golang-github-zeebo-assert
golang-github-zeebo-pcg
golang-github-zmap-rc2
golang-github-zmap-zflags
golang-github-zookeeper-zk
golang-gitlab-esr-fqme
golang-google-api
golang-google-genproto
golang-google-golangorg-cloud
golang-google-protobuf
golang-googlecode-gcfg
golang-googlecode-go-crypto
golang-googlecode-go-decimal-inf
golang-googlecode-go-exp
golang-googlecode-goauth2
golang-googlecode-gogoprotobuf
golang-googlecode-gomock
golang-googlecode-google-api-client
golang-googlecode-goprotobuf
golang-googlecode-log4go
golang-googlecode-net
golang-googlecode-sqlite
golang-googlecode-text
golang-googlecode-tools
golang-googlecode-uuid
golang-gopkg-alecthomas-kingpin-2
golang-gopkg-check
golang-gopkg-check-1
golang-gopkg-cheggaaa-pb-1
golang-gopkg-data-dog-sqlmock-1
golang-gopkg-errgo-2
golang-gopkg-gcfg-1
golang-gopkg-inf-0
golang-gopkg-ini-1
golang-gopkg-jcmturner-aescts-1
golang-gopkg-jcmturner-dnsutils-1
golang-gopkg-jcmturner-goidentity-3
golang-gopkg-jcmturner-rpc-1
golang-gopkg-logex-1
golang-gopkg-natefinch-lumberjack-2
golang-gopkg-olivere-elastic-5
golang-gopkg-readline-1
golang-gopkg-redis-6
golang-gopkg-russross-blackfriday-1
golang-gopkg-russross-blackfriday-2
golang-gopkg-stack-0
golang-gopkg-tomb-1
golang-gopkg-tomb-2
golang-gopkg-vmihailenco-msgpack-2
golang-gopkg-warnings-0
golang-gopkg-yaml
golang-gopkg-yaml-2
golang-gopkg-yaml-3
golang-gotest
golang-honnef-tools
golang-howett-plist
golang-k8s-klog2
golang-launchpad-go-xdg-v0
golang-launchpad-gocheck
golang-modernc-fileutil
golang-modernc-libc
golang-modernc-mathutil
golang-modernc-memory
golang-modernc-sqlite
golang-mozilla-pkcs7
golang-mvdan-gofumpt
golang-mvdan-xurls
golang-nanomsg-mangos-3
golang-rsc-pdf
golang-sigs-k8s-structured-merge-diff
golang-sigs-k8s-yaml
golang-uber-atomic
golang-uber-goleak
golang-uber-multierr
golang-uber-zap
golang-vbom-util
golang-x-arch
golang-x-crypto
golang-x-exp
golang-x-mod
golang-x-net
golang-x-oauth2
golang-x-sync
golang-x-sys
golang-x-term
golang-x-text
golang-x-time
golang-x-tools
golang-x-vuln
golang-x-xerrors
gold
goldendict
golie
golint
golist
golly
goloris
goocanvas
goocanvas2
gooddata-cl
google-api-python-client
google-auth-httplib2
google-authenticator
google-benchmark
google-cpu_features
google-croscore-fonts
google-crosextra-caladea-fonts
google-crosextra-carlito-fonts
google-droid-fonts
google-gson
google-noto-cjk-fonts
google-noto-emoji-fonts
google-perftools
google-phetsarath-fonts
google-roboto-fonts
google-roboto-mono-fonts
google-roboto-slab-fonts
googlecl
googler
gorm
gosnake
gotags
gotify-desktop
gpa
gpart
gparted
gpasman
gpaste
gpaw
gpaw-setups
gperftools
gperiodic
gpgme
gpgme-epel
gpgme1.22
gpick
gpicview
gplcver
gpodder
gpp4
gprbuild
gprconfig-kb
gpredict
gprof2dot
gprolog
gpsbabel
gpsd
gpsd-epel
gpsim
gputils
gpxe
gpxviewer
gqrx
gqview
gr-fcdproplus
gr-funcube
gr-iqbal
gr-osmosdr
gr-rds
grace
gradio
gradle
grads
gramps
granatier
grandr_applet
grantlee-editor
grantlee-qt5
grantleetheme
graphite-api
graphite-web
graphite2
graphviz
grass
grc
greadelf
greenisland
greenwave
grepcidr
gresistor
greylistd
grib_api
grid-packaging-tools
gridengine
gridftp-ifce
gridloc
gridsite
grilo-plugins
grin
grinder
grip
grive2
gromacs
groovy
group-service
grpc
grsync
grub-customizer
grub2
grub2-breeze-theme
gscan2pdf
gsh
gshhg-gmt-nc4
gshutdown
gsi-openssh
gsim85
gsl
gsl-epel
gsm
gsmartcontrol
gsoap
gspiceui
gssdp
gssntlmssp
gst123
gstreamer-java
gstreamer-plugins-pulse
gstreamer-python
gstreamer1-plugin-libav
gstreamer1-rtsp-server
gstreamer1-vaapi
gstreamermm
gsview
gt
gtengine
gtest
gthumb
gtk+
gtk+extra
gtk-aurora-engine
gtk-chtheme
gtk-equinox-engine
gtk-gnutella
gtk-layer-shell
gtk-murrine-engine
gtk-qt-engine
gtk-recordmydesktop
gtk-sharp-beans
gtk-sharp2
gtk-sharp3
gtk-unico-engine
gtk-xfce-engine
gtk2
gtk2-engines
gtk2hs-buildtools
gtkd
gtkdatabox
gtkdialog
gtkglarea2
gtkglext
gtkhtml38
gtkimageview
gtkmm24
gtksourcecompletion
gtksourceview2
gtksourceview3
gtksourceview4
gtksourceview4-epel
gtksourceviewmm
gtkspell
gtkterm
gtkwave
gtkwhiteboard
gtraffic
gtranslator
gts
gtweakui
guacamole
guacamole-client
guacamole-common
guacamole-common-js
guacamole-ext
guacamole-server
guacd
guake
gucharmap
gudev-sharp
guessencoding
guichan
guidelines-support-library
guile-cairo
guile-gnome-platform
guile-lib
guile22
guile30
guilt
gulrak-filesystem
gumbo-parser
gupnp
gupnp-igd
gupnp-vala
guvcview
gv
gvrpcd
gwaei
gwe
gweled
gwenhywfar
gwenview
gwibber
gxemul
gxine
gxkb
gyachi
gyp
h2
h5py
ha-jdbc
hackedbox
hackrf
haddock
hadoop
haildb
hakrevdns
halberd
halevt
halibut
hamlib
hamster-time-tracker
hans
happy
haproxy
haproxy18
hardening-check
hardening-wrapper
hardinfo2
harfbuzz
haruna
hash-slinger
hashcat
hashid
haskell-platform
hatch
hatools
haveged
hawaii-shell
hawaii-widget-styles
hawkey
hawtbuf
hawtdispatch
haxe
hct
hcxtools
hd-idle
hddfancontrol
hddtemp
hdf
hdf5
hdhomerun
healpix
healpy
heaptrack
heartbeat
heat-cfntools
heat-jeos
hedley
heimdal
hekafs
heketi
helix
hellanzb
help2man
herbstluftwm
hercstudio
hercules
hessian
hevea
hexchat
hexchat-autoaway
hexedit
hfsplus-tools
hg-git
hgsubversion
hgsvn
hibernate
hibernate-commons-annotations
hibernate-hql
hibernate-jpa-2.0-api
hibernate-jpa-2.1-api
hibernate-search
hibernate-validator
hibernate3
hibernate4
hid-replay
hidapi
hiera
highlight
highlighting-kate
highway
hippo-canvas
hiredis
hirte
hitch
hivex
hlint
hmmer
hntool
hoard
hokuyoaist
holland
home-assistant-cli
homebank
homestead
horai-ume-fonts
horde
hornetq
hostapd
hosts3d
hotspot
hotssh
hotwire
hping3
hppc
hpx
hsakmt
hscolour
hspell
hspell-epel
hsqldb1
hstr
ht2html
html2ps
html2text
html401-dtds
htmldoc
htmlparser
htmlunit-core-js
htop
htslib
http-parser
httpcomponents-asyncclient
httpd-itk
httpdump
httpie
httping
httpress
httprobe
httpry
httrack
httraqt
hub
hugin
hugs98
hulahop
hulk
hw-probe
hwinfo
hwk
hwloc
hxtools
hydra
hydrogen
hylafax+
hyperscan
hypre
hystrix
i3
i3-ipc
i3lock
i3status
i7z
i8kutils
iaito
ibmonitor
ibp
ibus
ibus-anthy
ibus-bogo
ibus-chewing
ibus-handwrite
ibus-hangul
ibus-m17n
ibus-pinyin
ibus-rime
ibus-table
ibus-table-chinese
icat
icc-profiles-basiccolor-printing2009
icc-profiles-openicc
iceauth
icecast
icecream
icedtea-web
icelandic-fonts
icemon
icewm
icon
icon-naming-utils
icon-slicer
icoutils
icu
icu4j
id3lib
idesk
ideviceinstaller
idevicerestore
idle3-tools
idlj-maven-plugin
idm-console-framework
idris
iec16022
ifstat
ifstatus
iftop
ifuse
ignition
ignition-math
ignition-msgs
ignition-transport
igraph
iguanaIR
iio-sensor-proxy
iipsrv
ikarus
ike
ike-scan
ikiwiki
iksemel
ilbc
ilmbase
im-chooser
ima-evm-utils
imagefactory
imagefactory-plugins
imagej
imake
imapfilter
imapsync
imaptest
imhex
iml
imlib
imlib2
imp
impallari-lobster-fonts
impressive
impressjs
imsettings
imvirt
inadyn
inception
inchi
incidenceeditor
incron
indefero
indent
infinispan
infoblox-client
ingo
inih
inih-epel
iniparser
initoverlayfs
inkscape
inkscape-sozi
inkscape-table
inn
innoextract
innotop
inotify-tools
insight
intel-cmt-cat
intel-gen4asm
intel-gmmlib
intel-ipp-crypto-mb
intel-ipsec-mb
intel-mediasdk
intel-vpl-gpu-rt
intellij-idea
international-time
inxi
ioc-writer
iodine
iok
ioping
ioprocess
iotools
iotop
iotop-c
iozone
ip6sic
ipa-hcc
ipa-pki-theme
ipcalculator
iperf
iperf3
ipmctl
ipmctl-compat-02.00.00.3885
ipmiutil
ipplan
ipsec-tools
ipsilon
iptables-epel
iptraf-ng
iptstate
ipv6calc
ipv6gen
ipw2100-firmware
ipw2200-firmware
ipwatchd
ipython
irc-otr
ircd-hybrid
ircd-ratbox
irclog2html
irda-utils
irma_configuration
ironjacamar
irrlicht
irsim
irssi
irssi-xmpp
is-interface
isa-l
iscan-firmware
isic
isl
islamic-menus
iso-country-flags
isoimagewriter
isomaster
isorelax
ispc
istatd
isync
itcl
itext
itinerary
itk
itop
itstool
itzam-core
iucode-tool
iverilog
ivykis
iwidgets
iwl4965-firmware
iwl5000-firmware
iwl5150-firmware
iwl6000-firmware
iwyu
iyfct
jFormatString
jabber-roster
jabberd
jabberpy
jabbim
jabbperpy
jabref
jabrt
jack-audio-connection-kit
jackrabbit
jackson-annotations
jackson-core
jackson-databind
jackson-dataformat-cbor
jackson-dataformat-csv
jackson-dataformat-smile
jackson-dataformat-xml
jackson-dataformat-yaml
jackson-datatype-jdk8
jackson-datatype-jsr310
jackson-jaxrs-providers
jackson-module-jaxb-annotations
jackson-parent
jacoco
jacorb
jai-imageio-core
jakarta-activation
jakarta-commons-cli
jakarta-commons-io
jakarta-servlet
jam
jama
jamonapi
jandex-maven-plugin
janino
jansson
jargs
jasmine
jasmine-node
jasper
jasperreports
jastow
jasypt
java-1.6.0-openjdk
java-diff-utils
java-dirq
java-latest-openjdk
java-latest-openjdk-portable
java-oauth
java-openjdk
java-runtime-decompiler
java-service-wrapper
java-sleep
java-uuid-generator
javacc
javapackages-tools-epel
javaparser
javasqlite
javatar
javawriter
jaxb
jaxb-api
jaxb-dtd-parser
jaxb2-maven-plugin
jaxen-bootstrap
jaxws-jboss-httpserver-httpspi
jaxws-undertow-httpspi
jazzy
jberet
jbig2dec
jblas
jboss-annotations-1.2-api
jboss-batch-1.0-api
jboss-classfilewriter
jboss-common-beans
jboss-common-core
jboss-concurrency-1.0-api
jboss-connector-1.6-api
jboss-connector-1.7-api
jboss-dmr
jboss-ejb-3.2-api
jboss-ejb-client
jboss-ejb3-ext-api
jboss-el-3.0-api
jboss-iiop-client
jboss-integration
jboss-interceptors-1.2-api
jboss-invocation
jboss-j2eemgmt-1.1-api
jboss-jacc-1.4-api
jboss-jacc-1.5-api
jboss-jaspi-1.0-api
jboss-jaspi-1.1-api
jboss-jaxb-2.2-api
jboss-jaxb-intros
jboss-jaxrs-2.0-api
jboss-jaxws-2.2-api
jboss-jms-1.1-api
jboss-jms-2.0-api
jboss-jsf-2.1-api
jboss-jsf-2.2-api
jboss-jsp-2.2-api
jboss-jsp-2.3-api
jboss-jstl-1.2-api
jboss-logging
jboss-logging-tools
jboss-logging-tools1
jboss-logmanager
jboss-logmanager-log4j
jboss-marshalling
jboss-metadata
jboss-modules
jboss-msc
jboss-negotiation
jboss-remote-naming
jboss-remoting
jboss-remoting-jmx
jboss-rmi-1.0-api
jboss-saaj-1.3-api
jboss-sasl
jboss-servlet-3.1-api
jboss-stdio
jboss-threads
jboss-transaction-1.2-api
jboss-transaction-spi
jboss-vfs
jboss-websocket-1.0-api
jboss-websocket-1.1-api
jbossws-api
jbossws-common
jbossws-common-tools
jbossws-cxf
jbossws-parent
jbossws-spi
jbrout
jc
jchardet
jcharts
jcip-annotations
jcodings
jcommon
jctools
jcuber
jday
jdeparser
jdeparser1
jdns
jdo-api
jdom
jdupes
jello
jemalloc
jempbox
jericho-html
jersey
jersey1
jeta
jetbrains-annotations
jetring
jettison
jetty-alpn-api
jexcelapi
jfontchooser
jfreechart
jgettext
jglobus
jgoodies-common
jgoodies-looks
jgraph
jgraphx
jgroups
jhdf5
jhead
jibx
jigdo
jilter
jimtcl
jipijapa
jitterentropy-rngd
jktestpackage
jlatexmath
jlibrtp
jline
jmake
jmh
jmock
jmol
jmtpfs
jna
jna-posix
jnettop
jo
joda-convert
joda-time
joe
jogl2
john
johnzon
joni
jopt-simple
josm
jove
jp2a
jpeginfo
jpegoptim
jpegxl
jpf
jpfcodegen
jpype
jq
jrnl
jrosetta
jruby
js
js-gl-matrix
js-html5shiv
js-jquery
js-jquery-jqplot
js-jquery-migrate
js-jquery-mousewheel
js-jquery-ui
js-jquery-ui-touch-punch
js-jquery1
js-jquery2
js-json
js-jsroot
js-respond
js-sizzle
js8call
jsl
jsmath-fonts
json
json-c
json-c12
json-glib
json-lib
json-parser
json-path
json-smart
json-table
json11
json_diff
json_simple
jsoncpp
jsoncpp-epel
jsonnet
jsonp
jsr-305
jss
jssc
jtnef
jtoaster
jts
jtype
judy-fk
juk
jul-to-slf4j-stub
julia
julietaula-montserrat-fonts
jumpnbump
junitperf
jupp
justmoon
jvyamlb
jwhois
jwm
jxrlib
jython
k3b
k3b-ape
k3b-extras
k3guitune
k4dirstat
kBuild
kabi-dw
kaccounts-integration
kaccounts-providers
kactivitymanagerd
kaddressbook
kaffeine
kajongg
kakoune
kalarm
kalgebra
kalibrate-rtl
kalk
kalm
kalzium
kamera
kamoso
kanagram
kanjistrokeorders-fonts
kannel
kapman
kapow
kapptemplate
kasablanca
kasts
kasumi
kate
katello-agent
katello-cli
katomic
kaudiocreator
kbackup
kbibtex
kblackbox
kblocks
kbounce
kbruch
kcachegrind
kcalc
kcalutils
kcat
kcbench
kcbench-data
kcharselect
kchmviewer
kclock
kcm-fcitx
kcm-gtk
kcm_systemd
kcm_wacomtablet
kcolorchooser
kcolorpicker
kcron
kdb
kde-cli-tools
kde-connect
kde-dev-scripts
kde-dev-utils
kde-filesystem
kde-gtk-config
kde-inotify-survey
kde-partitionmanager
kde-plasma-networkmanagement-extras
kde-plasma-nm
kde-plasma-redshift
kde-print-manager
kde-settings
kdeartwork-extras
kdebase4
kdebugsettings
kdecoration
kdeedu
kdeedu-data
kdegraphics-extras
kdegraphics-mobipocket
kdegraphics-thumbnailers
kdelibs-webkit
kdelibs3
kdelibs4
kdemultimedia-extras
kdenetwork-filesharing
kdenlive
kdepim-addons
kdepim-apps-libs
kdepim-runtime
kdepim3
kdeplasma-addons
kdesdk-kioslaves
kdesdk-thumbnailers
kdesvn
kdetoys
kdevelop
kdevelop-pg-qt
kdevelop-php
kdevplatform
kdf
kdiagram
kdialog
kdiamond
kdiff3
kdiskmark
kdnssd
kdocker
kdsoap
kdsoap-ws-discovery-client
kea
keditbookmarks
keepalived
keepass
keepassx
keepassx2
keepassxc
kerberoast
kernel-module-thinkpad
kexi
key-mon
keybinder
keychain
keychecker
keydb
keyrings-filesystem
keysmith
kf5
kf5-akonadi-calendar
kf5-akonadi-contacts
kf5-akonadi-mime
kf5-akonadi-notes
kf5-akonadi-search
kf5-akonadi-server
kf5-attica
kf5-audiocd-kio
kf5-baloo
kf5-bluez-qt
kf5-calendarsupport
kf5-eventviews
kf5-frameworkintegration
kf5-gpgmepp
kf5-grantleetheme
kf5-incidenceeditor
kf5-kactivities
kf5-kactivities-stats
kf5-kalarmcal
kf5-kapidox
kf5-karchive
kf5-kauth
kf5-kblog
kf5-kbookmarks
kf5-kcalendarcore
kf5-kcalendarutils
kf5-kcmutils
kf5-kcodecs
kf5-kcompletion
kf5-kconfig
kf5-kconfigwidgets
kf5-kcontacts
kf5-kcoreaddons
kf5-kcrash
kf5-kdav
kf5-kdbusaddons
kf5-kdeclarative
kf5-kded
kf5-kdelibs4support
kf5-kdesignerplugin
kf5-kdesu
kf5-kdewebkit
kf5-kdgantt2
kf5-kdnssd
kf5-kdoctools
kf5-kemoticons
kf5-kfilemetadata
kf5-kglobalaccel
kf5-kguiaddons
kf5-kholidays
kf5-khtml
kf5-ki18n
kf5-kiconthemes
kf5-kidentitymanagement
kf5-kidletime
kf5-kimageformats
kf5-kimap
kf5-kinit
kf5-kio
kf5-kipi-plugins
kf5-kirigami
kf5-kirigami2
kf5-kirigami2-addons
kf5-kitemmodels
kf5-kitemviews
kf5-kitinerary
kf5-kjobwidgets
kf5-kjs
kf5-kjsembed
kf5-kldap
kf5-kmailtransport
kf5-kmbox
kf5-kmediaplayer
kf5-kmime
kf5-knewstuff
kf5-knotifications
kf5-knotifyconfig
kf5-kontactinterface
kf5-kpackage
kf5-kparts
kf5-kpeople
kf5-kpimtextedit
kf5-kpkpass
kf5-kplotting
kf5-kpty
kf5-kquickcharts
kf5-kross
kf5-kross-interpreters
kf5-krunner
kf5-kservice
kf5-ksmtp
kf5-ktexteditor
kf5-ktextwidgets
kf5-ktnef
kf5-kunitconversion
kf5-kwallet
kf5-kwayland
kf5-kwidgetsaddons
kf5-kwindowsystem
kf5-kxmlgui
kf5-kxmlrpcclient
kf5-libgravatar
kf5-libkcddb
kf5-libkcompactdisc
kf5-libkdcraw
kf5-libkdepim
kf5-libkexiv2
kf5-libkface
kf5-libkgeomap
kf5-libkipi
kf5-libkleo
kf5-libksane
kf5-libksieve
kf5-libktorrent
kf5-mailcommon
kf5-mailimporter
kf5-messagelib
kf5-modemmanager-qt
kf5-networkmanager-qt
kf5-pimcommon
kf5-plasma
kf5-prison
kf5-purpose
kf5-solid
kf5-sonnet
kf5-syndication
kf5-syntax-highlighting
kf5-threadweaver
kf6
kf6-attica
kf6-baloo
[...]
rust-z-base-32
rust-z85
rust-zcomponents
rust-zerocopy
rust-zerocopy-derive
rust-zerocopy-derive0.6
rust-zerocopy-derive0.7
rust-zerocopy0.6
rust-zerocopy0.7
rust-zerofrom
rust-zerofrom-derive
rust-zeroize
rust-zeroize_derive
rust-zerovec
rust-zerovec-derive
rust-zip
rust-zlib-rs
rust-zoneinfo_compiled
rust-zopfli
rust-zoxide
rust-zram-generator
rust-zstd
rust-zstd-safe
rust-zstd-safe6
rust-zstd-sys
rust-zstd0.12
rust-zune-core
rust-zune-inflate
rust-zune-jpeg
rvm
rxjava
rxtx
rxvt
rxvt-unicode
rzip
s-nail
s2n-tls
s3cmd
s3fs-fuse
s3ql
sablecc
safecopy
safekeep
safelease
safetyblanket
sagator
sahana
sahara-image-elements
sakura
salt
salt-api
salt-cloud
salt-lint
salt3006
samdump2
samefile
samtools
sane-frontends
saoimage
sasl-xoauth2
saslwrapper
sassc
sasutils
satyr
savanna-image-elements
sazanami-fonts
sbackup
sbcl
sblim-cim-client
sblim-cim-client2
sblim-cmpi-base
sblim-cmpi-devel
sblim-cmpi-dhcp
sblim-cmpi-dns
sblim-cmpi-fsvol
sblim-cmpi-network
sblim-cmpi-nfsv3
sblim-cmpi-nfsv4
sblim-cmpi-params
sblim-cmpi-rpm
sblim-cmpi-samba
sblim-cmpi-sysfs
sblim-cmpi-syslog
sblim-gather
sblim-indication_helper
sblim-sfcb
sblim-sfcc
sblim-testsuite
sblim-tools-libra
sblim-wbemcli
sbsigntools
scala
scalapack
scalasca
scalpel
scamper
scanless
scanssh
scap-security-guide
scap-workbench
scapy
scdoc
schedtool
scheme2js
schroedinger
schroot
scidavis
scigraphica
scilab
scim
scim-anthy
scim-bridge
scim-chewing
scim-hangul
scim-m17n
scim-pinyin
scim-qtimm
scim-tables
scipy
scirenderer
scite
scitokens-cpp
scitools
scl-utils
scl-utils-build-helpers
scons
scorep
scotch
scponly
scram
screen
screengrab
screenkey
scribus
scribus-generator
scriptaculous
scrub
scsi-target-utils
scummvm-tools
sdbus-cpp
sdcc
sdcv
sddm
sddm-kcm
sdformat
sdl-crypto
sdl-decnumber
sdl-softfloat
sdl-telnet
sdorfehs
sdparm
seahorse-caja
seamonkey
seatd
sec
secilc
security-menus
sedutil
seeker
seekwatcher
seivot
selenium-core
selenium-remote-control
selint
sems
semver
sen
senamirmir-washra-font
sendemail
sendmail
sendxmpp
senna
sensible-utils
sentencepiece
ser2net
serd
seren
setconf
sevmgr
sexpp
sextractor
sfk
sfnt2woff-zopfli
sfsexp
sha2
shaderc
shairport-sync
shake
shaman
shapelib
shc
shdoc
shed
shedskin
sheepdog
shell-color-prompt
shelldap
shellinabox
shellz
shflags
shhgit
shibboleth-java-support
shiboken
shigofumi
shinken
shmpps
shogun
shogun-data
shorewall
shortrpm
showcert
shrinkwrap
shrinkwrap-descriptors
shrinkwrap-resolver
shtool
shuffledns
shunit2
shutter
shyaml
shybrid
sicktoolbox
sidplayfp
siege
sigil
signify
signon
signon-kwallet-extension
signon-plugin-oauth2
signon-ui
signpost-core
sigul
sil-mingzat-fonts
sil-nuosu-fonts
silkscreen-fonts
silvia
simarrange
simcrs
simde
simdjson
simdutf
simfqt
simh
simple-ccsm
simple-mail
simple-scan
simple-tpm-pk11
simple-xml
since
sing
singularity
singularity-ce
sip-redirect
sip6
sipcalc
sipp
sipsak
sipvicious
siril
sispmctl
sj-fonts
sk2py
skanlite
skanpage
skeinforge
sketch
skipfish
skladnik
sks
skychart
skyviewer
sl
slack-cleaner
sleef
sleuthkit
slf4j-jboss-logmanager
slib
slibtool
slick-greeter
slim
sloccount
slop
slowhttptest
slowloris
slrn
slurm
slv2
smaclient
smart
smartsim
smatch
smbldap-tools
smcalc
smem
smemstat
smesh
smf-spf
smokegen
smokeping
smokeqt
smoldyn
smolt
smp_utils
smplayer
sms_ntsc
smstools
smtpping
snacc
snake
snakeyaml
snallygaster
snap
snapd
snapd-glib
snappy
snappy-java
snapraid
snes_ntsc
sniproxy
snmpcheck
snmptt
snobol
snoopy
snort
snowcrash
sobby
socat
soci
socialscan
socket_wrapper
sockperf
socnetv
softfloat
softhsm
solaar
solo3
sombok
sonic-visualiser
sord
sos
soscleaner
soundkonverter
soundmodem
soundtouch
source-highlight
source-to-image
sourcextractor++
sox
soxr
spacebar
spacechart
spacecmd
spacefm
spacenavd
spacewalk-admin
spacewalk-backend
spacewalk-branding
spacewalk-config
spacewalk-proxy-docs
spacewalk-pylint
spacewalk-setup-jabberd
spacewalk-web
spamass-milter
spamassassin-FuzzyOcr
spamassassin-dqs
spamassassin-iXhash2
spambayes
spampd
spamprobe
spandsp
sparse
sparsehash
spasm-ng
spatial4j
spatialindex
spatialite-gui
spatialite-tools
spawn-fcgi
spdlog
spdrs60
spec-version-maven-plugin
spec2scl
spectacle
specto
spectra
spectre-meltdown-checker
spectrum
spectrwm
speech-tools
speedcrunch
speedtest-cli
speexdsp
spew
spglib
sphinx
sphinx-webtools
spice-gtk
spice-html5
spice-vdagent
spin
spirv-headers
spirv-tools
splint
splix
spnavcfg
spooky-c
sportrop-fonts
spr
springframework
spu-binutils
spyder
sqlcipher
sqlcli
sqlgrey
sqlite
sqlite2
sqlite3-dbf
sqlitebrowser
sqlninja
sqm-scripts
squashfs-tools-ng
squashfuse
squeal
squeezelite
squidGuard
squidclamav
squirrel
squirrelmail
srain
sratom
srcpd
srecord
srm
srm-ifce
srt
sscep
sscg
ssdeep
sselp
ssh-audit
ssh-installkeys
sshexport
sshfp
sshguard
sshmenu
sshpass
sshuttle
ssldump
sslh
sslogger
sslscan
sslsplit
sslstrip
ssm
ssmtp
sssd
ssss
sstp-client
st
stacer
stalonetray
standard-test-roles
stapitrace
starfighter
starlab
starplot
starplot-contrib
starplot-gliese3
starplot-yale5
statscache
statscache-plugins
statsd
statserial
status-report
staxmapper
stb
stbi
stdair
stduuid
stellarium
step
stevetraylen
stgit
stichwort
sticky-notes
stjerm
stlink
stockfish
stoken
stompclt
stomppy
stonevpn
storaged
stout
stow
strawberry
stream-lib
stress
stress-ng
stressapptest
stringtemplate
stringtemplate4
stripesnoop
strongswan
struts
stubby
stud
stun
stupid-package
stxxl
sub2srt
subfinder
subnetcalc
subunit
suck
sucrack
sugar
sugar-artwork
sugar-base
sugar-datastore
sugar-jukebox
sugar-pippy
sugar-presence-service
sugar-read
sugar-settings-manager
sugar-surf
sugar-toolkit
suil
suitesparse
suitesparse-epel
summain
sunbird
sundials
sundials2
sunwait
sunxi-tools
superiotool
superkaramba
superlu_dist
supertux
supervisor
supybot
supybot-fedmsg
supybot-fedora
supybot-gribble
supybot-koji
supybot-meetbot
supybot-notify
suricata
svgalib
svgpart
svgsalamander
svn2cl
svnkit
svnmailer
svt-av1
svt-vp9
svxlink
swagger-core
swaks
swarp
swatch
swatchdog
sweeper
swift
swift-lang
swiftlint
swig2
swing-layout
switchdesk
switchtec
sword
swtpm
sx
sxhkd
syck
sylfilter
sylpheed
symkey
sympa
sympy
synaptic
syncthing
synergy
synergy-plus
synfig
synfigstudio
syntaxhighlighter
sys_basher
sysbench
sysconftool
syslog-ng
sysprof
sysreporter
system-config-printer-epel
system-switch-displaymanager
systemd-bootchart
systemd-coredump-python
systemd-epel
systemd-extras
sysusage
sysutil
t1lib
t1utils
tabish-eeyek-fonts
tacacs
tachyon
tagainijisho
taglib
taglib-extras
taglib-sharp
tagsoup
tailor
tailscale
takari-archiver
takari-filemanager
takari-incrementalbuild
takari-lifecycle
takari-smart-builder
tangerine
tangerine-fonts
tango-icon-theme
tango-icon-theme-extras
tapkee
tarantool
target-isns
targetd
tart
task
task-spooler
taskd
taskjuggler
tayga
tbb
tbcload
tcalc
tcl-mysqltcl
tcl-signal
tcl-tclnagios
tcl-tclreadline
tcl-tcludp
tcl-tclvfs
tcl-tclxml
tcl-thread
tcl-tktreectrl
tcl-togl
tclchecker
tclcompiler
tcldebugger
tcldom
tcllib
tclparser
tclpro
tcltls
tclxml
tcp_wrappers
tcpcopy
tcpcrypt
tcpflow
tcpick
tcping
tcplay
tcpreen
tcpreplay
tcptraceroute
tcptrack
tcputils
tcpxtract
tdlib
tdom
teal
techtalk-pse
teem
teeworlds
tegrarcm
telegram-cli
telepathy-filesystem
telepathy-gabble
telepathy-glib
telepathy-mission-control
telepathy-rakia
telepathy-salut
tempus-fugit
tepl
termbox
terminator
terminology
terminus-fonts
terrier
teseq
tesseract
tesseract-langpack
tesseract-tessdata
testcloud
testdisk
testng
testssl
tetex-IEEEtran
tetex-dvipost
tetex-elsevier
tetex-fonts-hebrew
tetex-lineno
tetex-tex4ht
tetgen
tex-simplecv
texlive
texlive-extension
texmaker
textcat
textern
texworks
tfdocgen
tgif
tharlon-fonts
thc-ipv6
the-new-hotness
the_foundation
the_silver_searcher
thebridge
thefuck
thermald
thrift
throttle
thttpd
thunar-archive-plugin
thunar-media-tags-plugin
thunar-shares-plugin
thunar-vcs-plugin
thunar-volman
thunarx-python
thunderbird
thunderbird-enigmail
thunderbird-lightning
tidy
tidyp
tiedot
tig
tigase-server
tigase-utils
tigase-xmltools
tigervnc
tika
tiles
tilibs
tilix
tilp2
tilp_and_gfm
timescaledb
timeshift
timidity++
tinc
tini
tint2
tintii
tintwizard
tinyca2
tinycdb
tinydir
tinyexr
tinyfugue
tinymce
tinymce-spellchecker
tinyows
tinyproxy
tinyxml
tinyxml2
tio
tiobench
tipcutils
tiptop
tiquit
tiresias-fonts
tito
tkcon
tkcvs
tkgate
tkimg
tklib
tkrzw
tktable
tldr
tlock
tlog
tlomt-junction-fonts
tlomt-league-gothic-fonts
tlp
tlsdate
tlssled
tmate
tmda
tmt
tmux
tmux-top
tmuxinator
tnef
tnftp
tng
tnt
todocli
tofrodos
toilet
tokodon
tokyocabinet
tolua++
tomcat
tomcat-native
tomcat-taglibs-standard
tomcat6
tomcatjss
tomcli
toml11
tomlplusplus
tomoe
toped
topgit
toppler
tor
torbrowser-launcher
torcs
torcs-data
torque
torrent-file-editor
torsocks
totpcgi
touchcal
towhee
tpm-quote-tools
tpm-tools
tpm2-pkcs11
tpm2-tools
tpm2-tss
tpp
tqsllib
trabajo-fonts
trac
trac-CGit-plugin
trac-accountmanager-plugin
trac-advancedticketworkflow-plugin
trac-agilo-plugin
trac-authopenid-plugin
trac-batchmodify-plugin
trac-bazaar-plugin
trac-blackmagictickettweaks-plugin
trac-code-comments-plugin
trac-condfieldsgenshi-plugin
trac-customfieldadmin-plugin
trac-defaultcc-plugin
trac-doxygen-plugin
trac-fedmsg-plugin
trac-git-plugin
trac-iniadmin-plugin
trac-mastertickets-plugin
trac-mercurial-plugin
trac-monotone-plugin
trac-navadd-plugin
trac-peerreview-plugin
trac-privateticketsplugin
trac-sensitivetickets-plugin
trac-spamfilter-plugin
trac-sphinx-plugin
trac-sumfields-plugin
trac-themeengine-plugin
trac-ticketdelete-plugin
trac-tickettemplate-plugin
trac-tocmacro-plugin
trac-tracnav-plugin
trac-vatar-plugin
trac-watchlist-plugin
trac-webadmin
trac-workflowadmin-plugin
trac-xmlrpc-plugin
trac10
trace-gui
trace-summary
tracer
tracker
trademgen
trader
trafficserver
trafshow
transifex
transifex-client
translate-shell
translate-toolkit
translation-filter
transmission
transtats-cli
trash-cli
travelccm
tre
tree-sitter
treefrog-framework
treelayout
tremulous
tremulous-data
trickle
triehash
trinity
tripwire
trivy
trojan
trojita
trousers
trunk
trustedqsl
tryton
trytond
trytond-account
trytond-account-be
trytond-account-de-skr03
trytond-account-invoice
trytond-account-invoice-history
trytond-account-invoice-line-standalone
trytond-account-product
trytond-account-statement
trytond-account-stock-anglo-saxon
trytond-account-stock-continental
trytond-analytic-account
trytond-analytic-invoice
trytond-analytic-purchase
trytond-analytic-sale
trytond-calendar
trytond-calendar-classification
trytond-calendar-scheduling
trytond-calendar-todo
trytond-company
trytond-company-work-time
trytond-country
trytond-currency
trytond-dashboard
trytond-google-maps
trytond-google-translate
trytond-ldap-authentication
trytond-ldap-connection
trytond-party
trytond-party-siret
trytond-party-vcarddav
trytond-product
trytond-product-cost-fifo
trytond-product-cost-history
trytond-product-price-list
trytond-project
trytond-project-plan
trytond-project-revenue
trytond-purchase
trytond-purchase-invoice-line-standalone
trytond-sale
trytond-sale-opportunity
trytond-sale-price-list
trytond-stock
trytond-stock-forecast
trytond-stock-inventory-location
trytond-stock-location-sequence
trytond-stock-product-location
trytond-stock-supply
trytond-stock-supply-day
trytond-timesheet
tsl-sparse-map
tslib
tsocks
tsung
ttembed
ttf2pt1
ttfautohint
ttname
tty-copy
ttyd
ttywatch
tubo
tucan
tucnak2
tudu
tuladha-jejeg-fonts
tulrich-tuffy-fonts
tumbler
tunctl
tunir
tunneler
tuptime
turba
turbo-attack
turbojpeg
tuxanci
tuxcmd
tuxcut
tuxpaint
tuxpaint-stamps
tuxtype2
tvlsim
twa
tweak
tweeny
twincam
twinkle
twms
twolame
tworld
txmpp
txt2man
txt2regex
txt2tags
typepad-motion
typescript
typespeed
typetype-molot-fonts
tyrion
tzdata-java
u2f-hidraw-policy
uARMSolver
uClibc
uberftp
ubloxcfg
uboot-tools
ubridge
ubu-keyring
ubuntu-title-fonts
ucarp
uchardet
ucl
ucommon
ucpp
ucview
ucx
udis86
udiskie
udns
udpcast
udt
udunits
udunits2
ufdbGuard
ufraw
ufsparse
ufw
ugene
uget
uglify-js
uglify-js1
uglify-js3
ugrep
uhd
uhubctl
uid_wrapper
uima-addons
uimaj
uisp
uispec4j
ukij-tuz-fonts
ultimarc
ultimatestunts
umbrello
uml_utilities
umlgraph
umockdev
umr
unar
unbound
unclutter
uncrustify
undbx
undertow
undertow-js
unetbootin
unhide
unibilium
unicap
unicode-ucd
unicornscan
unifdef
unifont
unifying-receiver-udev
unique
unison
unison213
unison227
unison240
unittest
unittest-cpp
unoconv
unpaper
unrar-free
unrealircd
unrtf
unshield
unuran
unzboot
unzix
unzoo
uom-parent
up-imapproxy
update-ca-certificates
uperf
upower
upt
uptimed
upx
urbanlightscape
urdfdom
urdfdom-headers
uread
uredir
urg
uriparser
urjtag
urlbuster
ursa-major
usbauth
usbauth-notifier
usbguard
usbip
usbmuxd
usbsniff
usbview
userspace-rcu
ushare
usrsctp
ustl
ustr
utf8cpp
utf8proc
utf8proc-epel
uthash
uucp
uuid
uw-imap
uwsgi
uxplay
v-hacd
v4l-utils
v8
vagrant
vagrant-libvirt
vagrant-registration
vala
valabind
validns
valkey
valknut
valkyrie
vamp-plugin-sdk
vanessa_adt
vanessa_logger
vanessa_socket
vapoursynth
varnish
vaspview
vaultwarden
vaultwarden-web
vbindiff
vblade
vboot-utils
vcdimager
vcftools
vconfig
vcs-diff-lint
vcsh
vdirsyncer
vdpauinfo
vdsm
veccore
vecgeom
vecmath
velocity-tools
vera++
verilator
veristat
vertica-python
veusz
vhd2vl
vhostmd
vid.stab
vidalia
video-downloader
viewmtn
viewvc
vifm
vigra
viking
vile
vim-airline
vim-ale
vim-ansible
vim-devicons
vim-editorconfig
vim-fugitive
vim-fugitive-gitlab
vim-gitgutter
vim-go
vim-gtk-syntax
vim-gv
vim-jellybeans
vim-mediawiki
vim-nerdtree-git-plugin
vim-omnicppcomplete
vim-pathogen
vim-toml
vim-trailing-whitespace
vim-vimoutliner
virglrenderer
virt-backup
virt-top
virt-v2v
virtaal
virtme-ng
virtuoso-opensource
viruskiller
vkd3d
vkroots
vl-gothic-fonts
vlc
vlc-plugin-bittorrent
vlc-plugin-pause-click
vlc-plugin-pipewire
vlgothic-fonts
vmaf
vmod-querystring
vmpsd
vmtouch
vnc-ltsp-config
vncpwd
vnstat
vo-amrwbenc
vodovod
vokoscreenNG
volk
volpack
voms
voms-api-java
voms-clients-java
voms-mysql-plugin
vorbis-tools
voro++
vorta
votca
votca-csg
votca-tools
votca-xtp
vpnc
vpnc-script
vrms-rpm
vrq
vsomeip3
vsqlite++
vtable-dumper
vte
vtk
vtkdata
vttest
vtun
vulkan
vxl
vym
w3c-markup-validator
w3m
wabt
wad
wadofstuff-django-serializers
waf
waffle
wafw00f
waiverdb
wammu
wangle
wannier90
wapiti
warsow
warsow-data
warzone2100
wasmedge
wavbreaker
wavemon
wavpack
waycheck
wayvnc
wb_builder
wbox
wcd
wcm
wcslib
wcstools
wdiff
wdm
weasyprint
web-assets
web-assets-epel
webacula
webalizer
webanalyze
webattery
webextension-token-signing
webfts
webkitgtk
webp-pixbuf-loader
websec
websocketpp
websvn
webtech
weechat
weld-api
weld-core
wemux
weplab
wesnoth
weston
wfuzz
wget2
wgrib
wgrib2
whatip
whatmask
whatsup
whatweb
whereami
whichfont
whois
whowatch
whsniff
wicd
wicd-kde
wide-dhcpv6
wiggle
wiiuse
wildfly
wildfly-arquillian
wildfly-build-tools
wildfly-common
wildfly-core
wildfly-elytron
wildfly-security-manager
wildmagic5
wildmidi
will-crash
willie
wimlib
windowlab
wine
wine-docs
winetricks
winpdb
wipe
wiredtiger
wireguard-tools
wireless-tools
wise2
withlock
wkhtmltopdf
wl-clipboard
wlassistant
wlcs
wlmproxy
wmacpi
wmctrl
wmix
wob
woff
woffTools
wol
wolfssl
wondershaper
wordgroupz
wordnet
wordpress
wordpress-mu
wordpress-mu-plugin-defaults
wordpress-plugin-add-to-any
wordpress-plugin-add-to-any-subscribe
wordpress-plugin-bad-behavior
wordpress-plugin-defaults
wordxtr
worker
workrave
wp-cli
wput
wqy-microhei-fonts
wraplinux
writetype
ws-xmlschema
wsdd
wsdlpull
wsjtx
wsl
wsmancli
wss4j
wt
wult
wv
wv2
wxGTK
wxGTK3
wxMaxima
wxPython
wxmacmolplt
wxpropgrid
wxsvg
wyhash
x11vnc
x2goclient
x2godesktopsharing
x2gokdrive
x2gokdriveclient
x2goserver
x509viewer
x509watch
xa
xalan-c
xapian-bindings
xapian-core
xapps
xar
xarchiver
xastir
xautolock
xavante
xawtv
xbacklight
xbae
xbanish
xbar
xbase
xbean
xbg
xbiso
xboxdrv
xbsql
xbyak
xca
xcalc
xcat
xcb-util-cursor
xcb-util-xrm
xcfun
xchm
xcin
xcircuit
xclip
xclipboard
xclock
xcm
xcompmgr
xdelta
xdg-desktop-portal-kde
xdg-utils
xdialog
xdotool
xdrawchem
xdrfile
xdvik
xe-guest-utilities
xe-guest-utilities-latest
xed
xedit
xemacs
xemacs-packages-base
xemacs-packages-extra
xenlism-wildfire
xenserverjava
xenwatch
xephem
xerces-c
xfburn
xfce-bluetooth
xfce-polkit
xfce-utils
xfce4-appfinder
xfce4-battery-plugin
xfce4-calculator-plugin
xfce4-cellmodem-plugin
xfce4-clipman-plugin
xfce4-cpufreq-plugin
xfce4-cpugraph-plugin
xfce4-datetime-plugin
xfce4-dev-tools
xfce4-dict
xfce4-diskperf-plugin
xfce4-docklike-plugin
xfce4-equake-plugin
xfce4-eyes-plugin
xfce4-fsguard-plugin
xfce4-genmon-plugin
xfce4-hamster-plugin
xfce4-hardware-monitor-plugin
xfce4-icon-theme
xfce4-mailwatch-plugin
xfce4-mixer
xfce4-modemlights-plugin
xfce4-mount-plugin
xfce4-mpc-plugin
xfce4-netload-plugin
xfce4-notes-plugin
xfce4-notifyd
xfce4-panel
xfce4-panel-profiles
xfce4-places-plugin
xfce4-power-manager
xfce4-pulseaudio-plugin
xfce4-quicklauncher-plugin
xfce4-radio-plugin
xfce4-screensaver
xfce4-screenshooter
xfce4-screenshooter-plugin
xfce4-sensors-plugin
xfce4-session
xfce4-settings
xfce4-smartbookmark-plugin
xfce4-statusnotifier-plugin
xfce4-systemload-plugin
xfce4-taskmanager
xfce4-terminal
xfce4-time-out-plugin
xfce4-timer-plugin
xfce4-vala
xfce4-verve-plugin
xfce4-volumed
xfce4-wavelan-plugin
xfce4-weather-plugin
xfce4-whiskermenu-plugin
xfce4-xfswitch-plugin
xfce4-xkb-plugin
xfconf
xfdashboard
xfdesktop
xfig
xfmpc
xfoil
xfontsel
xforms
xfpanel-switch
xfwm4
xfwm4-theme-nodoka
xfwm4-themes
xgrep
xine-lib
xine-ui
xinha
xinput_calibrator
xiphos
xisxwayland
xkbset
xkeycaps
xl2tpd
xlcrack
xloadimage
xlockmore
xlogin
xls2csv
xmakemol
xmbdfed
xmessage
xml-security
xml-security-c
xml2
xml2dict
xmlada
xmlbeans
xmlcopyeditor
xmlgraphics-commons
xmlpull
xmlsec1
xmlstarlet
xmlstreambuffer
xmltoman
xmltooling
xmms
xmms-acme
xmms-arts
xmms-crossfade
xmms-flac
xmms-lirc
xmms-musepack
xmms-skins
xmms-speex
xmonad
xmount
xmountains
xmp
xmp-plugin-audacious
xmpcore
xmppc
xnec2c
xnio
xnoise
xnvme
xom
xonotic
xonotic-data
xoreos-tools
xorg-x11-drv-evdev-epel
xorg-x11-drv-geode
xorg-x11-drv-libinput
xorg-x11-drv-openchrome
xorg-x11-drv-synaptics
xorg-x11-glamor
xorg-x11-resutils
xorg-x11-server-Xwayland-epel
xorg-x11-xfs
xorgxrdp
xorriso
xorsearch
xortool
xosd
xournal
xournalpp
xpa
xpad
xpaint
xpanes
xpdf
xplanet
xplayer
xplayer-plparser
xpp3
xpra
xprobe2
xpsk31
xqc
xqilla
xrdcl-http
xrdhttpvoms
xrdp
xreader
xrefresh
xrootd
xrootd-compat
xrootd-s3-http
xrotor
xs
xschem
xscreensaver
xsd
xsecurelock
xsel
xsensors
xsettings-kde
xsettingsd
xsimd
xsp
xstar
xstream
xsupplicant
xteddy
xtensor
xtl
xtrlock
xtuple-csvimp
xtuple-openrpt
xvarstar
xvattr
xvidcore
xviewer
xviewer-plugins
xvkbd
xwayland-run
xwaylandvideobridge
xwd
xwm
xwota
xxhash
xz
yacreader
yad
yadifa
yafc
yakuake
yaml-cpp
yaml-cpp03
yamllint
yank
yapet
yara
yarnpkg
yascreen
yasm
yast2-devtools
yast2-filesystem
yawn
yaws
yaz
ycssmin
ydotool
yersinia
yggdrasil
ykclient
ykpers
ykushcmd
yofrankie-bge
yoshimi
yosys
yourls
youtube-dl
yt-dlp
ytalk
ytnef
ytree
yubico-piv-tool
yubihsm-connector
yubihsm-shell
yubikey-ksm
yubikey-manager
yubikey-personalization-gui
yubikey-piv-manager
yubikey-val
yubioath-desktop
yuicompressor
yum
yum-arch
yum-axelget
yum-cron
yum-utils
yumex
yumex-dnf
yyjson
z3
z80asm
z80dasm
zabbix
zabbix20
zabbix22
zabbix30
zabbix40
zabbix50
zabbix6.0
zabbix7.0
zanata-api
zanata-client
zanata-common
zanata-parent
zanata-platform
zanata-python-client
zanata-util
zanshin
zaptel
zarafa
zarafa-webaccess
zathura
zathura-cb
zathura-djvu
zathura-pdf-poppler
zathura-ps
zbackup
zbar
zcfan
zchunk
zd1211-firmware
zeal
zeek
zerofree
zeroinstall-injector
zeromq
zeromq-ada
zeromq2
zeromq3
zezere
zfp
zfs-fuse
zgrab2
zikula
zikula-module-EZComments
zikula-module-MultiHook
zikula-module-News
zikula-module-Polls
zikula-module-advanced_polls
zikula-module-crpTag
zikula-module-feeds
zikula-module-filterutil
zikula-module-menutree
zikula-module-pagemaster
zikula-module-scribite
zile
zimg
zimlib
zinnia
zint
zipios++
zix
zlib-ada
zlib-ng
zmap
znc
znc-clientbuffer
znc-extra
znc-infobot
znc-push
zoo
zookeeper
zope
zopfli
zork
zram
zsh-autosuggestions
zsh-lovers
zsh-syntax-highlighting
zstd
zswap-cli
zukitwo
zulucrypt
zvbi
zxing-cpp
zyx-liveinstaller
zziplib
zzuf
