0ad
0ad-data
0install
2048-cli
2ping
389-admin
389-admin-console
389-adminutil
389-console
389-ds
389-ds-console
389-dsgw
3mux
3proxy
4diac-forte
64tass
6tunnel
8sync
90-Second-Portraits
AMF
Agda
Agda-stdlib
AntTweakBar
ArpON
AusweisApp2
BEDTools
BackupPC
BackupPC-XS
BareBonesBrowserLaunch
BibTool
CBFlib
CCfits
CFR
CGSI-gSOAP
CImg
CQRlib
CTL
CUnit
CVector
Canna
CharLS
Charliecloud
Coin2
Coin3
Coin4
ColPack
Common documentation files for oVirt
CutyCapt
DivFix++
FAudio
Field3D
FlightCrew
FoXlibf
GConf2
GLC_Player
GLC_lib
GMT
GarminPlugin
GeoIP
GeoIP-GeoLite-data
GeographicLib
GitPython
GraphicsMagick
GtkAda
GtkAda3
HepMC
HepMC3
HikariCP
IBSimu
IP2Location
IPAddress
ImageMagick
Inventor
Judy
KPMcore
LibRaw-epel
Lmod
LogService
LuxRender
MUMPS
Mayavi
MySQL-zrm
NLopt
NaturalDocs
NearTree
NetPIPE
NetworkManager-fortisslvpn
NetworkManager-l2tp
NetworkManager-openconnect
NetworkManager-openvpn
NetworkManager-pptp
NetworkManager-strongswan
NetworkManager-vpnc
NsCDE
OCE
ORBit2
OpenColorIO
OpenEXR_CTL
OpenEXR_Viewers
OpenImageIO
OpenLP
OpenMolcas
OpenSceneGraph
OpenStego
PDAL
PEGTL
Package Review
PackageKit-Qt
Panini
Pencil2D
PerceptualDiff
Perlbal
Pound
PragmARC
ProDy
PyDrive
PyQt-builder
PyQt4-webkit
PyQuante
PySolFC
PySolFC-cardsets
PySolFC-music
PyXB
Quake2
QuantLib
R
R-RInside
R-RM2
R-RUnit
R-Rcpp
R-TH-data
R-XVector
R-highlight
R-inline
R-littler
R-msm
R-multcomp
R-qtl
R-rJava
R-rlecuyer
R-rpm-macros
R2spec
RBTools
RabbIT
RackTables
RdRand
Review Request: golang-github-garyburd-redigo
ReviewBoard
Rex
SDL2
SDL2_gfx
SDL2_image
SDL2_mixer
SDL2_net
SDL2_ttf
SDL_Pango
SDL_gfx
SDL_image
SDL_mixer
SDL_net
SDL_sound
SDL_ttf
SFCGAL
SIMVoleon
ShellCheck
SkyX
SoQt
SoapySDR
SocketW
StarCluster
SuperLU
SuperLUMT
TeXmacs
Thunar
TurboGears
TurboGears2
VLGothic-fonts
VMDKstream
VirtualGL
Xaw3d
Zim
a52dec
aajohan-comfortaa-fonts
aalib
abc
abcMIDI
abcde
abcm2ps
abduco
abi-compliance-checker
abi-dumper
abi-tracker
abiword
abook
abootimg
abrt-addon-python3
abrt-server-info-page
abseil-cpp
accounts-qml-module
accumulo
aces_container
ack
acme-tiny
act
activemq-cpp
adapta-backgrounds
adapta-gtk-theme
adb-enhanced
addrwatch
admesh
adobe-source-code-pro-fonts
adobe-source-han-sans-cn-fonts
adobe-source-han-sans-jp-fonts
adobe-source-han-sans-kr-fonts
adobe-source-han-sans-tw-fonts
adobe-source-han-sans-twhk-fonts
adobe-source-sans-pro-fonts
adplug
advancecomp
aesh
aeskeyfind
aespipe
afetch
afflib
afpfs-ng
afuse
agedu
aggregate
aha
aiccu
aime
aiodnsbrute
airinv
airline
airnef
airrac
airtsp
aisleriot
akmods
akonadi-calendar-tools
akonadi-import-wizard
akonadiconsole
akregator
alacarte
alembic
alex
alglib
algobox
alien
alignak
alizams
allegro
almas-mongolian-title-fonts
alot
alpine
altermime
am-utils
amanda
amarok
amavis
amavisd-milter
amg4psblas
amiri-fonts
ampache_browser
amqp
amtterm
analitza
andriller
android-tools
androwarn
anet
anjuta
ann
annobin
anope
ansible
ansible-collection-ansible-posix
ansible-collection-ansible-utils
ansible-collection-chocolatey-chocolatey
ansible-collection-community-docker
ansible-collection-community-general
ansible-collection-community-libvirt
ansible-collection-community-mysql
ansible-collection-community-rabbitmq
ansible-collection-containers-podman
ansible-collection-netbox-netbox
ansible-inventory-grapher
ansible-lint
ansible-openstack-modules
ansible-packaging
ansible-review
ansifilter
anthy
anthy-unicode
antlr-maven-plugin
antlr3
antlr4
aom
apache-commons-chain
apache-commons-csv
apache-commons-digester
apache-commons-discovery
apache-commons-fileupload
apache-commons-jcs
apache-james-project
apache-mime4j
apache-poi
apachetop
apbs
apcupsd
apg
apiextractor
apigen
apiviz
appdata-tools
apper
applet-window-buttons
appliance-tools
appres
appstream
apptainer
appx-util
apt-cacher-ng
apvlv
aqbanking
aqsis
aquatone
ara
arc-gui-clients
arc-theme
arch-install-scripts
archaius
archimedes
archivemount
archmage
arduino
argbash
argon2
argparse-manpage
argtable
argus
ari-backup
aria2
aries-blueprint-annotation-api
aries-blueprint-api
aries-blueprint-core
aries-blueprint-parser
aries-proxy-api
aries-proxy-impl
aries-quiesce-api
aries-util
arj
ark
arm-none-eabi-binutils-cs
arm-none-eabi-gcc-cs
arm-none-eabi-newlib
arm-trusted-firmware
armadillo
arp-scan
arpack
arprec
arpwatch
arquillian-core
artemis
artemis-wildfly-integration
artikulate
arts
artwiz-aleczapka-fonts
ascii
ascii-design
asciinema
asdcplib
asio
asl
asnip
aspectjweaver
aspell-af
aspell-bg
aspell-br
aspell-ca
aspell-cs
aspell-cy
aspell-da
aspell-de
aspell-el
aspell-en
aspell-es
aspell-fi
aspell-fo
aspell-fr
aspell-ga
aspell-gd
aspell-gl
aspell-hr
aspell-id
aspell-is
aspell-it
aspell-la
aspell-ml
aspell-nl
aspell-no
aspell-pl
aspell-pt_BR
aspell-pt_PT
aspell-ru
aspell-sk
aspell-sl
aspell-sr
aspell-sv
assertj-core
assimp
ast
asterisk
asterisk-sounds-core
astigmatic-grand-hotel-fonts
astronomy-menus
astyle
atanua
atari++
atari800
atasm
atomes
atomic-queue
atomicapp
atool
atop
atoum
atril
audacious
audacious-plugins
audacity
audiofile
auter
authbind
auto
autoconf2.7x
autodocksuite
autodownloader
autojump
autokey
autossh
autotest-framework
autotrash
autowrap
avahi-epel
avl
avogadro2
avogadro2-libs
avr-binutils
avr-gcc
avr-gdb
avr-libc
avrdude
avro
awesome-vim-colorschemes
aws-shell
awscli
awstats
axc
axel
axis
azote
azure-cli
babeld
babeltrace
backintime
backup-manager
backupninja
badchars
bakefile
baloo-widgets
bam
bandit
banner
bannergrab
banshee
barcode
baresip
barman
barrier
basez
bash-argsparse
bash-completion-extras
bashmount
batctl
bats
bcftools
bcg729
bcrypt
bctoolbox
bcunit
bdftopcf
bdii
bdsync
beaker
beakerlib
beakerlib-libraries
bean-validation-api
beanstalk-client
beanstalkd
bear
beecrypt
beep
beesu
belle-sip
belr
bettercap
bgpq3
bgpq4
biblesync
bibutils
bifcl
binaryen
bind-to-tinydns
bind9-next
bindfs
bionetgen
bip
bird
bird2
bitcoin-core
bitcoin-core-selinux
bitlbee
bitlbee-discord
bitlbee-facebook
bitlbee-steam
bitmap
bitstower-markets
bitstream
bitstream-vera-fonts
bitten
bkhive
blacs
bleachbit
blender
blinken
blis
blitz
blivet-gui
bloaty
blosc
blt
blueberry
bluebird
bluedevil
bluefish
blueman
bluez-tools
bmap-tools
bmon
bodhi
bodhi-client
boinc-client
boinc-tui
bomber
bonnie++
booksorg
bookworm
boost-nowide
boost-python3
boost1.78
boost148
boost169
borgbackup
borgmatic
botan
botan2
bouncycastle
bovo
bowtie
bowtie2
boxes
bpfmon
bpython
bpytop
breeze-gtk
breeze-icon-theme
bridge-utils
brightlight
brightnessctl
bro
brotli
bsdiff
bspwm
btest
bti
btkbdd
btop
btrbk
btrfs-fuse
btrfs-sxbackup
bubblewrap
bucardo
bugwarrior
bugyou
bugyou_plugins
build-constraints-rpm-macros
buildbot
bullet
bumpversion
burp
busybox
bwa
bwm-ng
bwping
byobu
bytelist
bzip3
bzrtools
c3p0
c4core
c4fs
c4log
c4project
cAudio
cabal-dev
cabal-install
cabal-rpm
cabextract
cachelib
cacti
cacti-spine
cadaver
caddy
caja
caja-actions
caja-extensions
caja-terminal
cajun-jsonapi
calamaris
calc
calceph
calendar
calligra
calligra-l10n
cambozola
camotics
campivisivi-titillium-fonts
can-utils
canl-c
canl-c++
canl-java
cantata
cantera
cantoolz
cantor
capnproto
capstats
capstone
carbon-c-relay
carbonate
cargo2rpm
caribou
caribou0
casc
cascadia-code-fonts
cashe
castget
castor
castxml
casync
catch
catch1
catdoc
catimg
catkin
cbonsai
cbootimage
cc1541
cc65
ccache
cciss_vol_status
ccrtp
ccrypt
ccsm
ccze
cd-discid
cdac-sakal-marathi-fonts
cdbs
cdk
cdlabelgen
cdparanoia
cdpr
cdrdao
cdrkit
cekit
celt
celt071
centerim
centos-packager
centpkg
cepces
ceph-ansible
ceph-deploy
cereal
ceres-solver
certbot
certmaster
certwatch
cervisia
cf-sorts-mill-goudy-fonts
cfitsio
cfv
cgdb
cgit
cgnslib
chaos-client
charliecloud
check-mk
check_postgres
checksec
checkstyle
chemtool
cherokee
cherrytree
chicken
chirp
chisel
chm2pdf
chmlib
chocolate-doom
chromaprint
chrome-gnome-shell
chromium
chunkfs
cinch
cinfo
cinnamon
cinnamon-control-center
cinnamon-desktop
cinnamon-menus
cinnamon-screensaver
cinnamon-session
cinnamon-settings-daemon
cinnamon-themes
cinnamon-translations
ciphertest
civetweb
cjdns
cjs
cjson
ck
ckeditor
ckermit
cl-asdf
clamav
clamav-unofficial-sigs
clamsmtp
clang
clapham
classification-banner
classmate
classpathless-compiler
clatd
claws-mail
claws-mail-plugins
clazy
clblast
clearlooks-phenix
clearsilver
clementine
cli-parser
cli11
clibs-list
clide
clifm
clinfo
clipper
clitest
cln
cloc
clojure
cloog
cloud-utils
clucene09
clustal-omega
clustershell
clusterssh
clutter-epel
clutter-gst3-epel
clutter-gtk-epel
cmake-fedora
cmake3
cmap-resources
cmark
cmatrix
cminpack
cmocka
cmockery2
cmospwd
cmrt
cntlm
co2mon
cobbler
cobbler3.2
coccinelle
cockatrice
cockpit-file-sharing
cockpit-navigator
codeblocks
codec2
codemod
codespell
coffee-script
cogl-epel
coin-or-CoinUtils
coin-or-Data-Netlib
coin-or-Ipopt
coin-or-Sample
collada-dom
collectd
collectl
colm
colord-kde
colordiff
colorize
combblas
comic-neue-fonts
commit-stream
common-lisp-controller
commoncpp2
compat-freerdp12
compat-gtkhtml314
compat-guile18
compat-libuv010
compat-lua
compat-qpid-cpp
compat-tidy
compat-wxGTK3-gtk2
compface
compiz
compiz-bcop
compiz-plugins-experimental
compiz-plugins-extra
compiz-plugins-main
compizconfig-python
compose-utils
composer
conakry-fonts
conda
condor
cone
configsnap
conky
conky-manager
conman
connect-proxy
connman
conserver
console-bridge
conspy
consul
container-exception-logger
containerd
contractor
conu
converseen
convertall
cookcc
cool-retro-term
copr-builder
copr-cli
copr-dist-git
copr-messaging
copr-rpmbuild
copr-selinux
copyq
coreboot-utils
corectrl
corosync
corosync-epel
corrida
cotila
coturn
courier-unicode
cowsay
cp2k
cpanspec
cpdup
cpp-hocon
cpp-jwt
cppad
cppcheck
cpphs
cpputest
cppzmq
cproto
cptutils
cpufetch
cpuid
cpulimit
cqrlog
create-fake-rpm
credentials-fetcher
credslayer
cri-o
crlfuzz
crm114
cronolog
cros-guest-tools
cross-binutils
cross-gcc
crudini
crun-wasm
cryfs
cryptacular
cryptkeeper
cryptlib
crypto
crypto-policies
cryptopp
cscppc
csdiff
csmock
csnappy
csslint
csvcat
cswrap
ctags
ctpl
ctstream
cube
cups-bjnp
cups-pdf
cups-x2go
curlftpfs
cutter-re
cvechecker
cvs
cvsgraph
cxf
cxf-build-utils
cxf-xjc-utils
cxxopts
cxxtest
cycle
czmq
d-din-fonts
d-feet
d52
dSFMT
daala
daemonize
dahdi-tools
dans-gdal-scripts
daq
dar
darcs
darkhttpd
darkserver
darkstat
darktable
dash
datagrepper
datamash
datanommer-commands
datefudge
dateutils
dav1d
davfs2
davix
dayjournal
dbench
dbus-broker
dbus-c++
dbus-sharp
dbus-sharp-glib
dbusmenu-qt
dbusmenu-qt5
dc3dd
dcap
dcfldd
dcmtk
dcw-gmt
dd_rescue
ddclient
ddd
ddgr
ddnet
ddpt
ddrescue
ddupdate
debbuild
debconf
debhelper
debian-keyring
debmirror
debootstrap
debugbreak
decnumber
dehydrated
deja-dup
deltaspike
derby
derrick
desktop-backgrounds
dev86
devilspie2
devio
devscripts
dex
dfc
dfuzzer
dgit
dh-autoreconf
dh-make
dhall
dhall-json
dhcpcd
dhcpd-pools
dhcpdump
dhcping
dhtest
dia
dib-utils
dibbler
dictd
did
dieharder
dietlibc
diff-pdf
diffmark
digikam
digitemp
dillo
dionaea
dirac
disciplining-minipod
discount
disk-utilities
diskimage-builder
disktype
dislocker
dispenso
disper
disruptor
dissy
dist-git
distcc
distgen
distribution
distribution-gpg-keys
distrobox
djvulibre
dkms
dl
dl-fedora
dl_poly
dlrn
dlt-daemon
dmenu
dmlite
dmtcp
dmtx-utils
dmz-cursor-themes
dnf-langpacks
dnf-plugin-diff
dnf-plugin-flunk_dependent_remove
dnf-plugin-ovl
dnf-plugin-perfmetrics
dnscrypt-proxy
dnscrypt-proxy2
dnsdist
dnsenum
dnsgen
dnsjava
dnsmap
dnsperf
dnsprobe
dnssec-tools
dnssec-trigger
dnstop
dnstracer
dnsyo
docbook2X
docbook5-style-xsl
docco
dock
docker-compose
docopt-cpp
doctest
doge
dogtail
dojo
dokuwiki
dolphin
dolphin-plugins
dosbox
double-conversion
double-conversion-epel
dovecot-fts-xapian
doxy2man
dpkg
dpm-contrib-admintools
dr_libs
draco
dragon
drawing
drawtiming
drbd
drbdlinks
dreamweb
drgeo
drobo-utils
dropbear
dropwatch
drraw
drupal7
drupal7-active_tags
drupal7-addressfield
drupal7-admin_language
drupal7-admin_menu
drupal7-admin_theme
drupal7-advanced_help
drupal7-auto_nodetitle
drupal7-backup_migrate
drupal7-block_class
drupal7-boxes
drupal7-calendar
drupal7-cck
drupal7-chosen
drupal7-ckeditor
drupal7-context
drupal7-crumbs
drupal7-cs_adaptive_image
drupal7-ctools
drupal7-date
drupal7-date_ical
drupal7-diff
drupal7-domain
drupal7-domain_locale
drupal7-domain_views
drupal7-drafty
drupal7-drush_language
drupal7-ds
drupal7-email
drupal7-entity
drupal7-entity_translation
drupal7-eva
drupal7-features
drupal7-features_extra
drupal7-feeds
drupal7-fences
drupal7-field_permissions
drupal7-file_entity
drupal7-file_entity_inline
drupal7-fivestar
drupal7-flexifilter
drupal7-footnotes
drupal7-google_analytics
drupal7-honeypot
drupal7-i18n
drupal7-i18n_boxes
drupal7-i18nviews
drupal7-job_scheduler
drupal7-jquery_update
drupal7-l10n_client
drupal7-l10n_pconfig
drupal7-l10n_server
drupal7-l10n_update
drupal7-lang_dropdown
drupal7-language_cookie
drupal7-language_switcher
drupal7-languageicons
drupal7-libraries
drupal7-link
drupal7-locale_auto_import
drupal7-locale_cookie
drupal7-login_destination
drupal7-markdown
drupal7-mediawiki_api
drupal7-menu_token
drupal7-metatag
drupal7-migrate
drupal7-module_filter
drupal7-panels
drupal7-path_breadcrumbs
drupal7-pathauto
drupal7-potx
drupal7-profiler
drupal7-rules
drupal7-site_map
drupal7-stringoverrides
drupal7-strongarm
drupal7-taxonomy_access_fix
drupal7-theme-adaptivetheme
drupal7-theme-ninesixty
drupal7-theme-zen
drupal7-title
drupal7-tmgmt
drupal7-token
drupal7-translation_helpers
drupal7-translation_overview
drupal7-translation_table
drupal7-transliteration
drupal7-uuid
drupal7-variable
drupal7-views
drupal7-views_bulk_operations
drupal7-views_rss
drupal7-views_slideshow
drupal7-votingapi
drupal7-webform
drupal7-workbench
drupal7-workbench_moderation
drupal7-xmlsitemap
drush
dsniff
dspam
dssp
dtv-scan-tables
dub
duktape
dumb-init
dump
dumpet
duo_unix
duperemove
duplicity
duply
dustin-domestic-manners-fonts
dustin-dustismo-fonts
dvblast
dvd+rw-tools
dvdauthor
dvdbackup
dvdisaster
dvisvgm
dvtm
dwarves
dwdiff
dymo-cups-drivers
dynafed
dynaplugz
dzen2
e00compr
e3
earcandy
earcut-hpp
earlyoom
easy-rsa
easyloggingpp
easymock
easymock3
easytag
eb
ebtables
ebtree
ec2-hibinit-agent
eccodes
ecdsautils
ecj
eclipse
eclipse-filesystem
eclipselink
ecryptfs-simple
ecryptfs-utils
edac-utils
edflib
edg-gridftp-client
edg-mkgridmap
editline
editorconfig
edk2
edk2-epel
efifs
efl
eg
eggdrop
egl-gbm
egl-wayland
eglexternalplatform
ehcache-core
ehcache2
eigen2
eigen3
ejabberd
ekmukta-fonts
elastic-curator
elasticdump
elementary
elements
elements-alexandria
elfio
elinks
elixir
elk
elmon
elog
elpa
emacs-haskell-mode
emacs-magit
emacs-rpm-spec-mode
emacs-yaml-mode
embree
emerald
emerald-themes
emma
enca
endlessh
enet
engauge-digitizer
engrampa
enki
enlightenment
ensmallen
entr
enunciate
enunciate (Re-review: enunciate-core-annotations)
eom
eot-utils
epel-release
epel-rpm-macros
ephemeral-port-reserve
epson-inkjet-printer-escpr
epson-inkjet-printer-escpr2
epstool
epylog
erfa
ergo
erlang
erlang-edown
erlang-emmap
erlang-epgsql
erlang-eradius
erlang-erlando
erlang-erlsom
erlang-erlsyslog
erlang-ibrowse
erlang-jiffy
erlang-meck
erlang-oauth
erlang-rebar
erlang-rpm-macros
erlang-sd_notify
erlang-skerl
erlang-snappy
erlang-xmlrpc
esmi_ib_library
esmtp
esound
espresso
et
etckeeper
ethstatus
ettercap
euca2ools
evas-generic-loaders
evas_generic_loaders
evemu
eventlog
evtest
exaile
examiner
exciting
execstack
exfatprogs
exif
exim
exo
exodusii
exonerate
expliot
expresso
extra-cmake-modules
extrema
extundelete
eyesight
ezstream
f21-backgrounds
f22-backgrounds
f23-backgrounds
f2c
f2fs-tools
f2py
f3
f30-backgrounds
f31-backgrounds
f32-backgrounds
f34-backgrounds
f35-backgrounds
f36-backgrounds
f37-backgrounds
f38-backgrounds
fabric
facter
faenza-icon-theme
fail2ban
fakechroot
fakeroot
fancontrol-gui
fann
fapolicy-analyzer
farstream02
fasd
fast_float
fastd
fasterxml-oss-parent
fastfetch
fastlz
fastnetmon
fasttext
fastutil
fatresize
fbf-mukti-fonts
fbrnch
fbthrift
fcgi
fcgiwrap
fcitx
fcitx-anthy
fcitx-chewing
fcitx-cloudpinyin
fcitx-configtool
fcitx-fbterm
fcitx-kkc
fcitx-qt5
fcitx-table-extra
fcitx-table-other
fcitx-ui-light
fcitx-unikey
fcl
fcode-utils
fctxpd
fdupes
featherpad
fedfind
fedmsg
fedocal
fedora-arm-installer
fedora-dockerfiles
fedora-easy-karma
fedora-gnat-project-common
fedora-license-data
fedora-messaging
fedora-packager
fedora-repo-zdicts
fedora-review
fedora-review-plugin-java
fedpkg
fedpkg-minimal
fedrepo-req
fedwatch
feedreader
fegistry
feh
fence-agents-epel
fennel
ferm
fernflower
festival
festival-freebsoft-utils
fetch-crl
fex
ffmpeg
ffmpegthumbs
fftw2
ffuf
fido
fig2ps
figlet
file-roller
filedrop
filelight
filezilla
fips
fira-code-fonts
firebird
firefox-pkcs11-loader
firejail
fish
fishpoll
fizz
fkill-cli
flacon
flamegraph
flameshot
flamethrower
flamp
flann
flashrom
flatbuffers
flatpak-kcm
flatpak-module-tools
flatseal
flawfinder
flcluster
fldigi
fleet
fleet-commander-admin
fleet-commander-client
flent
flexiport
flickcurl
fllog
flnet
flopgen
florence
flow-tools
flpsed
flr
flrig
fluent-bit
fluid
fluid-soundfont
fluidsynth
flumotion
fluxbox
fluxcapacitor
flwkey
flxmlrpc
fmf
fmt
fntsample
foliate
folly
folly-rpm-macros
fontawesome-fonts
fontdump
fontopia
fonts-compare
fonttools
fop
forbidden-apis
fortune-mod
fotoxx
foundation-icons-fonts
foxtrotgps
fpart
fpaste
fpc
fpc-srpm-macros
fpdns
fping
fpm2
fprobe-ulog
free42
freealut
freecad
freeciv
freecolor
freedv
freeimage
freeipa-desktop-profile
freeipa-fas
freemarker
freeradius-client
freerdp1.2
freerouting
freetds
freetiger
freewrl
freexl
freeze
frei0r-plugins
freight
frepple
frobby
fs_mark
fslint
fstransform
fstrm
fsverity-utils
fswatch
fswebcam
ftgl
ftplib
fts
fts-monitoring
fts-rest-client
func
funionfs
fuse-encfs
fuse-python
fuse-sshfs
fuse-zip
fuse2fs
fuse3
fusion-icon
fusioninventory-agent
future
fuzza
fvwm
fwknop
fwknop-gui
fx
fx-completion
fzf
g2clib
ga
gabedit
gaim-gadugadu
gajim
galera
gambit-c
game-music-emu
gamemode
gammu
ganglia
garcon
garmindev
garmintools
gaupol
gavl
gazebo
gball
gcab
gcal
gcc-epel
gccxml
gcin
gdal
gdata-sharp
gdb-exploitable
gdcm
gdl
gdlmm
geany
geany-plugins
geany-themes
gearmand
gecode
gedit-color-schemes
gedit-control-your-tabs
gedit-plugin-editorconfig
gen-oath-safe
genders
general
generatorrunner
generic-jms-ra
gengetopt
geoipupdate
geome
geos
gerbera
gerbv
geronimo-ejb
geronimo-interceptor
geronimo-jcache
geronimo-jcdi-1.0-api
geronimo-jpa
geronimo-validation
getdns
getmail
gf2x
gfal2
gfal2-python
gfal2-util
gfalFS
gflags
gfm
gftp
ggz-base-libs
ggz-gtk-client
ghc
ghc-Diff
ghc-GLURaw
ghc-Glob
ghc-HTTP
ghc-HUnit
ghc-HaXml
ghc-HsOpenSSL
ghc-HsYAML
ghc-IfElse
ghc-JuicyPixels
ghc-MissingH
ghc-MonadCatchIO-transformers
ghc-ObjectName
ghc-OpenGL
ghc-OpenGLRaw
ghc-QuickCheck
ghc-SHA
ghc-STMonadTrans
ghc-SafeSemaphore
ghc-StateVar
ghc-X11
ghc-X11-xft
ghc-aeson
ghc-aeson-pretty
ghc-aeson-yaml
ghc-annotated-wl-pprint
ghc-ansi-terminal
ghc-ansi-wl-pprint
ghc-appar
ghc-asn1-encoding
ghc-asn1-parse
ghc-asn1-types
ghc-assoc
ghc-async
ghc-atomic-write
ghc-attoparsec
ghc-attoparsec-enumerator
ghc-auto-update
ghc-base-compat
ghc-base-compat-batteries
ghc-base-orphans
ghc-base-unicode-symbols
ghc-base16-bytestring
ghc-base64-bytestring
ghc-basement
ghc-bifunctors
ghc-blaze-builder
ghc-blaze-builder-conduit
ghc-blaze-builder-enumerator
ghc-blaze-html
ghc-blaze-markup
ghc-bloomfilter
ghc-boxes
ghc-bugzilla-redhat
ghc-byteable
ghc-cabal-doctest
ghc-cairo
ghc-call-stack
ghc-case-insensitive
ghc-cautious-file
ghc-cborg
ghc-cborg-json
ghc-cereal
ghc-charset
ghc-cheapskate
ghc-citeproc-hs
ghc-clock
ghc-cmark
ghc-cmdargs
ghc-cmdtheline
ghc-code-page
ghc-colour
ghc-comonad
ghc-concrete-typerep
ghc-conduit
ghc-conduit-extra
ghc-config-ini
ghc-connection
ghc-contravariant
ghc-cookie
ghc-crypto-api
ghc-cryptohash
ghc-cryptohash-md5
ghc-cryptohash-sha1
ghc-cryptohash-sha256
ghc-cryptonite
ghc-cryptonite-conduit
ghc-data-default
ghc-data-default-class
ghc-data-default-instances-containers
ghc-data-default-instances-dlist
ghc-data-default-instances-old-locale
ghc-data-fix
ghc-data-hash
ghc-dataenc
ghc-date-cache
ghc-dbus
ghc-deepseq-generics
ghc-derive
ghc-digest
ghc-distributive
ghc-dlist
ghc-doctemplates
ghc-doctest
ghc-dotgen
ghc-double-conversion
ghc-echo
ghc-ed25519
ghc-edit-distance
ghc-either
ghc-email-validate
ghc-enclosed-exceptions
ghc-entropy
ghc-enumerator
ghc-equivalence
ghc-exceptions
ghc-explicit-exception
ghc-extensible-exceptions
ghc-extra
ghc-fast-logger
ghc-fgl
ghc-file-embed
ghc-filemanip
ghc-filepath-bytestring
ghc-filepattern
ghc-filtrable
ghc-fingertree
ghc-fixed
ghc-formatting
ghc-foundation
ghc-fsnotify
ghc-generic-deriving
ghc-geniplate
ghc-ghc-lib-parser
ghc-ghc-mtl
ghc-ghc-paths
ghc-gi-atk
ghc-gi-cairo
ghc-gi-gdk
ghc-gi-gdkpixbuf
ghc-gi-gio
ghc-gi-gmodule
ghc-gi-gtk
ghc-gi-harfbuzz
ghc-gi-ostree
ghc-gi-pango
ghc-gio
ghc-gitrev
ghc-glade
ghc-glib
ghc-graphviz
ghc-gtk
ghc-gtk3
ghc-gtksourceview2
ghc-hackage-security
ghc-haddock-library
ghc-hakyll
ghc-half
ghc-happstack-server
ghc-hashable
ghc-hashed-storage
ghc-hashtables
ghc-haskeline
ghc-haskell-src-exts
ghc-haskell-src-exts-util
ghc-haxr
ghc-highlighting-kate
ghc-hinotify
ghc-hint
ghc-hjsmin
ghc-hourglass
ghc-hs-bibutils
ghc-hslogger
ghc-hslua
ghc-hslua-module-text
ghc-hspec
ghc-hspec-core
ghc-hspec-discover
ghc-hspec-expectations
ghc-html
ghc-html-conduit
ghc-http-client
ghc-http-client-tls
ghc-http-common
ghc-http-conduit
ghc-http-date
ghc-http-directory
ghc-http-query
ghc-http-streams
ghc-http-types
ghc-http2
ghc-ieee754
ghc-indexed-traversable
ghc-infer-license
ghc-integer-logarithms
ghc-io-streams
ghc-iproute
ghc-iso8601-time
ghc-js-flot
ghc-js-jquery
ghc-json
ghc-koji
ghc-language-java
ghc-lens-family-core
ghc-libffi
ghc-libxml-sax
ghc-lifted-base
ghc-lrucache
ghc-lukko
ghc-maccatcher
ghc-megaparsec
ghc-memory
ghc-microlens
ghc-microlens-mtl
ghc-mime-types
ghc-mmap
ghc-mmorph
ghc-monad-control
ghc-monad-logger
ghc-monad-loops
ghc-monad-unify
ghc-monads-tf
ghc-mono-traversable
ghc-mtl
ghc-mwc-random
ghc-nats
ghc-network
ghc-network-bsd
ghc-network-byte-order
ghc-network-conduit
ghc-network-uri
ghc-old-locale
ghc-old-time
ghc-openssl-streams
ghc-optparse-applicative
ghc-optparse-simple
ghc-pandoc-types
ghc-pango
ghc-parallel
ghc-parsec
ghc-parsec-numbers
ghc-parser-combinators
ghc-parsers
ghc-path
ghc-path-io
ghc-path-pieces
ghc-pattern-arrows
ghc-pcre-light
ghc-pem
ghc-persistent
ghc-persistent-sqlite
ghc-persistent-template
ghc-polyparse
ghc-pretty-simple
ghc-pretty-terminal
ghc-prettyprinter
ghc-prettyprinter-ansi-terminal
ghc-primitive
ghc-profunctors
ghc-psqueues
ghc-publicsuffixlist
ghc-pureMD5
ghc-quickcheck-io
ghc-random
ghc-refact
ghc-reflection
ghc-regex-applicative
ghc-regex-base
ghc-regex-compat
ghc-regex-posix
ghc-regex-tdfa
ghc-repline
ghc-resolv
ghc-resourcet
ghc-retry
ghc-rfc5051
ghc-rio
ghc-rio-prettyprint
ghc-rpm-macros
ghc-rpm-nvr
ghc-safe
ghc-scientific
ghc-securemem
ghc-semigroupoids
ghc-semigroups
ghc-sendfile
ghc-serialise
ghc-setenv
ghc-setlocale
ghc-shakespeare
ghc-shakespeare-js
ghc-shelly
ghc-simple-cabal
ghc-simple-cmd
ghc-simple-cmd-args
ghc-simple-sendfile
ghc-skylighting
ghc-snap-core
ghc-snap-server
ghc-socks
ghc-split
ghc-stm
ghc-stm-chans
ghc-streaming-commons
ghc-strict
ghc-syb
ghc-system-fileio
ghc-system-filepath
ghc-tagged
ghc-tagsoup
ghc-tar
ghc-tar-conduit
ghc-tasty
ghc-tasty-hunit
ghc-tasty-quickcheck
ghc-temporary
ghc-terminal-size
ghc-terminfo
ghc-texmath
ghc-text
ghc-text-manipulate
ghc-text-metrics
ghc-tf-random
ghc-th-abstraction
ghc-th-compat
ghc-th-expand-syns
ghc-th-lift
ghc-th-lift-instances
ghc-th-reify-many
ghc-these
ghc-threads
ghc-time-compat
ghc-time-locale-compat
ghc-tls
ghc-transformers
ghc-transformers-base
ghc-transformers-compat
ghc-typed-process
ghc-unbounded-delays
ghc-unicode-transforms
ghc-uniplate
ghc-unix-compat
ghc-unix-time
ghc-unliftio
ghc-unliftio-core
ghc-unordered-containers
ghc-uri-encode
ghc-utf8-string
ghc-uuid
ghc-uuid-types
ghc-vault
ghc-vector
ghc-vector-algorithms
ghc-vector-binary-instances
ghc-void
ghc-wai
ghc-wai-extra
ghc-warp
ghc-wl-pprint
ghc-wl-pprint-text
ghc-word8
ghc-x509
ghc-x509-store
ghc-x509-system
ghc-x509-validation
ghc-xdg-basedir
ghc-xdg-userdirs
ghc-xhtml
ghc-xml
ghc-xml-conduit
ghc-xml-types
ghc-xmonad-contrib
ghc-xss-sanitize
ghc-yaml
ghc-yesod
ghc-yesod-core
ghc-yesod-form
ghc-yesod-persistent
ghc-zip-archive
ghc-zlib
ghc-zlib-bindings
ghc-zlib-conduit
ghc-zlib-enum
ghc8.2
ghc8.8
ghc9.0
ghc9.2
ghc9.4
ghc9.6
ghcid
ghostwriter
gi-docgen
gifsicle
gigolo
gilmsg
gimp-dbp
gimp-dds-plugin
gimp-elsamuko
gimp-fourier-plugin
gimp-gap
gimp-high-pass-filter
gimp-layer-via-copy-cut
gimp-luminosity-masks
gimp-paint-studio
gimp-save-for-web
gimpfx-foundry
ginac
ginfo
gio-sharp
gip
girara
git-annex
git-cal
git-cola
git-credential-oauth
git-crypt
git-evtag
git-extras
git-lfs
git-octopus
git-publish
git-pull-request
git-repair
git-review
git-secret
git-subrepo
git-tools
git-xcleaner
git2cl
gitflow
gitg
github2fedmsg
gitklient
gitolite3
gitqlient
gitstats
gjots2
gkermit
gkeyfile-sharp
gkrellm
gkrellm-top
gl2ps
glabels
glade3
glances
glassfish-annotation-api
glassfish-ejb-api
glassfish-enterprise-concurrent
glassfish-enterprise-concurrent-api
glassfish-jax-rs-api
glassfish-jaxb-api
glassfish-legal
glassfish-master-pom
glassfish-saaj
glassfish-servlet-api
glassfish-toplink-essentials
glassfish-transaction-api
glassfish-websocket-api
glazedlists
gle
glew
glfw
glib
glide
glite-jobid-api-c
glite-jobid-api-cpp
glite-jobid-api-java
glite-lb-client
glite-lb-client-java
glite-lb-common
glite-lb-logger
glite-lb-logger-msg
glite-lb-server
glite-lb-state-machine
glite-lb-types
glite-lb-utils
glite-lb-ws-interface
glite-lbjp-common-db
glite-lbjp-common-gsoap-plugin
glite-lbjp-common-gss
glite-lbjp-common-jp-interface
glite-lbjp-common-log
glite-lbjp-common-maildir
glite-lbjp-common-server-bones
glite-lbjp-common-trio
glite-px-proxyrenewal
global
globus-authz
globus-authz-callout-error
globus-callout
globus-common
globus-ftp-client
globus-ftp-control
globus-gass-cache
globus-gass-cache-program
globus-gass-copy
globus-gass-server-ez
globus-gass-transfer
globus-gatekeeper
globus-gfork
globus-gram-audit
globus-gram-client
globus-gram-client-tools
globus-gram-job-manager
globus-gram-job-manager-callout-error
globus-gram-job-manager-condor
globus-gram-job-manager-fork
globus-gram-job-manager-lsf
globus-gram-job-manager-pbs
globus-gram-job-manager-scripts
globus-gram-job-manager-sge
globus-gram-job-manager-slurm
globus-gram-protocol
globus-gridftp-server
globus-gridftp-server-control
globus-gridmap-callout-error
globus-gridmap-eppn-callout
globus-gridmap-verify-myproxy-callout
globus-gsi-callback
globus-gsi-cert-utils
globus-gsi-credential
globus-gsi-openssl-error
globus-gsi-proxy-core
globus-gsi-proxy-ssl
globus-gsi-sysconfig
globus-gss-assist
globus-gssapi-error
globus-gssapi-gsi
globus-io
globus-net-manager
globus-openssl-module
globus-proxy-utils
globus-rsl
globus-scheduler-event-generator
globus-simple-ca
globus-xio
globus-xio-gridftp-driver
globus-xio-gridftp-multicast
globus-xio-gsi-driver
globus-xio-pipe-driver
globus-xio-popen-driver
globus-xio-rate-driver
globus-xio-udt-driver
globus-xioperf
glog
glogg
gloox
glpi
glpk
glslang
glue-schema
glue-validator
gluegen2
glyphicons-halflings-fonts
glyphography-newscycle-fonts
gmime
gmime30
gmock
gmrun
gmsh
gn
gnokii
gnome-applets
gnome-battery-bench
gnome-calendar
gnome-characters
gnome-chess
gnome-colors-icon-theme
gnome-desktop
gnome-doc-utils
gnome-epub-thumbnailer
gnome-firmware
gnome-flashback
gnome-icon-theme
gnome-logs
gnome-maps
gnome-monitor-config
gnome-panel
gnome-python2-desktop
gnome-python2-extras
gnome-screensaver
gnome-sharp
gnome-shell-extension-activities-configurator
gnome-shell-extension-appindicator
gnome-shell-extension-argos
gnome-shell-extension-caffeine
gnome-shell-extension-disconnect-wifi
gnome-shell-extension-do-not-disturb-button
gnome-shell-extension-freon
gnome-shell-extension-historymanager-prefix-search
gnome-shell-extension-iok
gnome-shell-extension-no-overview
gnome-shell-extension-no-topleft-hot-corner
gnome-shell-extension-openweather
gnome-shell-extension-panel-osd
gnome-shell-extension-pidgin
gnome-shell-extension-pop-shell
gnome-shell-extension-refresh-wifi
gnome-shell-extension-screen-autorotate
gnome-shell-extension-sound-output-device-chooser
gnome-shell-extension-suspend-button
gnome-shell-extension-system-monitor-applet
gnome-shell-extension-topicons-plus
gnome-shell-extension-unite
gnome-shell-extension-vertical-workspaces
gnome-shell-extension-windowoverlay-icons
gnome-translate
gns3-gui
gns3-net-converter
gns3-server
gnu-free-fonts
gnu-smalltalk
gnubik
gnucash
gnucash-docs
gnuchess
gnucobol
gnudos
gnugo
gnulib
gnumeric
gnupg1
gnuplot
gnuradio
gnusim8085
gnustep-base
gnustep-make
go-bindata
go-rpm-macros-epel
goaccess
goaltdns
gobby05
gobuster
gocomplete
gocr
goddi
godot
gofer
goffice08
gogoc
golang
golang-bazil-fuse
golang-bitbucket-kardianos-osext
golang-bitbucket-ww-goautoneg
golang-github-10gen-openssl
golang-github-3rf-mongo-lint
golang-github-3th1nk-cidr
golang-github-AdRoll-goamz
golang-github-Azure-azure-sdk-for-go
golang-github-BurntSushi-toml
golang-github-DATA-DOG-go-sqlmock
golang-github-DataDog-datadog-go
golang-github-Jeffail-gabs
golang-github-MakeNowJust-heredoc
golang-github-Masterminds-semver
golang-github-Masterminds-vcs
golang-github-RangelReale-osin
golang-github-RangelReale-osincli
golang-github-SAP-go-hdb
golang-github-SeanDolphin-bqschema
golang-github-SermoDigital-jose
golang-github-Shopify-sarama
golang-github-Shopify-toxiproxy
golang-github-Sirupsen-logrus
golang-github-Unknwon-goconfig
golang-github-VividCortex-ewma
golang-github-aaronjanse-pty
golang-github-abbot-go-http-auth
golang-github-acarl005-stripansi
golang-github-agl-ed25519
golang-github-akamensky-argparse
golang-github-akrennmair-gopcap
golang-github-alexflint-scalar
golang-github-andreasbriese-bbloom
golang-github-andrew-d-termutil
golang-github-anmitsu-shlex
golang-github-antchfx-jsonquery
golang-github-antchfx-xpath
golang-github-appc-spec
golang-github-armon-circbuf
golang-github-armon-go-metrics
golang-github-armon-go-proxyproto
golang-github-armon-go-radix
golang-github-armon-gomdb
golang-github-aryann-difflib
golang-github-asaskevich-eventbus
golang-github-asaskevich-govalidator
golang-github-auth0-go-jwt-middleware
golang-github-avast-retry
golang-github-aws-aws-sdk-go
golang-github-azure-ntlmssp
golang-github-badgerodon-peg
golang-github-beorn7-perks
golang-github-bettercap-gatt
golang-github-bettercap-nrf24
golang-github-bettercap-readline
golang-github-bettercap-recording
golang-github-bgentry-speakeasy
golang-github-billziss-gh-cgofuse
golang-github-blang-semver
golang-github-bmizerany-assert
golang-github-bmizerany-pat
golang-github-bmizerany-perks
golang-github-bobesa-domain-util
golang-github-boltdb-bolt
golang-github-boombuler-barcode
golang-github-bradfitz-http2
golang-github-brocaar-chirpstack-api
golang-github-bruth-assert
golang-github-bugsnag-bugsnag-go
golang-github-bugsnag-panicwrap
golang-github-burntsushi-toml
golang-github-casbin-2
golang-github-cenkalti-backoff
golang-github-cheggaaa-pb
golang-github-chifflier-nfqueue
golang-github-chrismalek-oktasdk-go
golang-github-christrenkamp-goxpath
golang-github-chromedp
golang-github-chromedp-cdproto
golang-github-chzyer-test
golang-github-circonus-labs-circonus-gometrics
golang-github-circonus-labs-circonusllhist
golang-github-cloudfoundry-incubator-candiedyaml
golang-github-cockroachdb-cmux
golang-github-cockroachdb-cockroach-go
golang-github-codegangsta-cli
golang-github-codegangsta-negroni
golang-github-collectd-go-collectd
golang-github-common-nighthawk-figure
golang-github-coreos-gexpect
golang-github-coreos-go-etcd
golang-github-coreos-go-iptables
golang-github-coreos-go-log
golang-github-coreos-go-oidc
golang-github-coreos-go-semver
golang-github-coreos-pkg
golang-github-cpuguy83-go-md2man
golang-github-cpuguy83-md2man
golang-github-d2g-dhcp4
golang-github-d2g-dhcp4client
golang-github-d5-tengo-2
golang-github-davecgh-go-spew
golang-github-daviddengcn-go-colortext
golang-github-denisenkom-go-mssqldb
golang-github-dennwc-base
golang-github-dennwc-btrfs
golang-github-dennwc-graphql
golang-github-dennwc-ioctl
golang-github-denverdino-aliyungo
golang-github-dghubble-oauth1
golang-github-dghubble-sessions
golang-github-dghubble-sling
golang-github-dghubble-twitter
golang-github-dgnorton-goback
golang-github-dgraph-io-badger
golang-github-dgraph-io-ristretto
golang-github-dgrijalva-jwt-go
golang-github-digitalocean-godo
golang-github-docker-go
golang-github-docker-go-connections
golang-github-docker-go-units
golang-github-docker-libcontainer
golang-github-docker-libkv
golang-github-docker-libtrust
golang-github-docker-spdystream
golang-github-docopt-docopt-go
golang-github-duosecurity-duo_api_golang
golang-github-dustin-go-humanize
golang-github-dvsekhvalnov-jose2go
golang-github-eapache-go-resiliency
golang-github-eapache-queue
golang-github-elazarl-go-bindata-assetfs
golang-github-emicklei-go-restful
golang-github-emirpasic-gods
golang-github-endophage-gotuf
golang-github-evanphx-json-patch
golang-github-evilsocket-islazy
golang-github-facebook-time
golang-github-fatih-pool
golang-github-fatih-set
golang-github-fatih-structs
golang-github-fd0-termstatus
golang-github-fsouza-go-dockerclient
golang-github-fullsailor-pkcs7
golang-github-garyburd-redigo
golang-github-gdamore-encoding
golang-github-gdamore-optopia
golang-github-gdamore-tcell
golang-github-gengo-grpc-gateway
golang-github-getsentry-raven-go
golang-github-geziyor
golang-github-ghodss-yaml
golang-github-gin-contrib-cors
golang-github-gin-contrib-static
golang-github-glacjay-goini
golang-github-go-asn1-ber-asn1-ber
golang-github-go-errors-error
golang-github-go-fsnotify-fsnotify
golang-github-go-ini-ini
golang-github-go-ldap-ldap
golang-github-go-mgo-mgo
golang-github-go-sql-driver-mysql
golang-github-go-tomb-tomb
golang-github-gobwas-httphead
golang-github-gobwas-ws
golang-github-gocomply-scap
golang-github-gocql-gocql
golang-github-godbus-dbus
golang-github-golang-appengine
golang-github-golang-glog
golang-github-golang-groupcache
golang-github-golang-sys
golang-github-golang-time
golang-github-gonum-blas
golang-github-gonum-floats
golang-github-gonum-graph
golang-github-gonum-internal
golang-github-gonum-lapack
golang-github-gonum-matrix
golang-github-google-btree
golang-github-google-go-cmp
golang-github-google-go-genproto
golang-github-google-go-github
golang-github-google-go-querystring
golang-github-google-gofuzz
golang-github-gookit-color
golang-github-goraft-raft
golang-github-gorilla-context
golang-github-gorilla-handlers
golang-github-gorilla-mux
golang-github-gorilla-securecookie
golang-github-gorilla-sessions
golang-github-gorilla-websocket
golang-github-graph-gophers-graphql
golang-github-grpc-ecosystem-go-grpc-prometheus
golang-github-grpc-ecosystem-grpc-gateway
golang-github-grpc-grpc-go
golang-github-guelfey-godbus
golang-github-hailocab-go-hostpool
golang-github-hashicorp-consul-migrate
golang-github-hashicorp-errwrap
golang-github-hashicorp-go-checkpoint
golang-github-hashicorp-go-cleanhttp
golang-github-hashicorp-go-hclog
golang-github-hashicorp-go-immutable-radix
golang-github-hashicorp-go-memdb
golang-github-hashicorp-go-msgpack
golang-github-hashicorp-go-multierror
golang-github-hashicorp-go-plugin
golang-github-hashicorp-go-retryablehttp
golang-github-hashicorp-go-rootcerts
golang-github-hashicorp-go-sockaddr
golang-github-hashicorp-go-syslog
golang-github-hashicorp-go-uuid
golang-github-hashicorp-golang-lru
golang-github-hashicorp-hcl
golang-github-hashicorp-hil
golang-github-hashicorp-logutils
golang-github-hashicorp-mdns
golang-github-hashicorp-memberlist
golang-github-hashicorp-net-rpc-msgpackrpc
golang-github-hashicorp-raft
golang-github-hashicorp-raft-boltdb
golang-github-hashicorp-raft-mdb
golang-github-hashicorp-scada-client
golang-github-hashicorp-serf
golang-github-hashicorp-yamux
golang-github-hawkular-hawkular-client-go
golang-github-hbakhtiyor-strsim
golang-github-howeyc-gopass
golang-github-hsiafan-glow
golang-github-hsiafan-vlog
golang-github-ianbruene-difflib
golang-github-imdario-mergo
golang-github-inconshreveable-go-vhost
golang-github-inconshreveable-mousetrap
golang-github-inconshreveable-muxado
golang-github-influxdb-go-cache
golang-github-influxdb-gomdb
golang-github-influxdb-hyperleveldb-go
golang-github-influxdb-influxdb
golang-github-influxdb-rocksdb
golang-github-jacobsa-oglematchers
golang-github-jba-printsrc
golang-github-jefferai-jsonx
golang-github-jessevdk-go-flags
golang-github-jfrazelle-go
golang-github-jinzhu-gorm
golang-github-jlaffaye-ftp
golang-github-jmespath-go-jmespath
golang-github-jmhodges-levigo
golang-github-jonboulle-clockwork
golang-github-jpillora-ansi
golang-github-jpillora-requestlog
golang-github-jpillora-sizestr
golang-github-jpillora-tld
golang-github-jtolds-gls
golang-github-juju-ratelimit
golang-github-julienschmidt-httprouter
golang-github-karlseguin-ccache
golang-github-karlseguin-expect
golang-github-kballard-go-shellquote
golang-github-kballard-shellquote
golang-github-kdar-factorlog
golang-github-keybase-go-crypto
golang-github-kimor79-gollectd
golang-github-klauspost-crc32
golang-github-knieriem-markdown
golang-github-kr-binarydist
golang-github-kr-fs
golang-github-kr-pretty
golang-github-kr-pty
golang-github-kr-text
golang-github-kraman-libcontainer
golang-github-kubernetes-heapster
golang-github-lair-framework-nessus
golang-github-lair-framework-nmap
golang-github-liamg-scout
golang-github-liamg-tml
golang-github-lib-pq
golang-github-logrusorgru-aurora
golang-github-lpabon-godbc
golang-github-lsegal-gucumber
golang-github-lucasb-eyer-colorful
golang-github-m-mizutani-urlscan
golang-github-magiconair-properties
golang-github-malfunkt-iprange
golang-github-masterzen-simplexml
golang-github-masterzen-winrm
golang-github-matoous-nanoid
golang-github-matrix-org-gomatrix
golang-github-mattn-go-isatty
golang-github-mattn-go-runewidth
golang-github-mattn-go-sqlite3
golang-github-mattn-shellwords
golang-github-matttproud-golang_protobuf_extensions
golang-github-mdlayher-ethtool
golang-github-mesos-mesos-go
golang-github-mgutz-ansi
golang-github-mgutz-logxi
golang-github-michaelklishin-rabbit-hole
golang-github-miekg-dns
golang-github-miekg-pkcs11
golang-github-milochristiansen-axis2
golang-github-milochristiansen-lua
golang-github-mistifyio-go-zfs
golang-github-mitchellh-cli
golang-github-mitchellh-copystructure
golang-github-mitchellh-go-homedir
golang-github-mitchellh-go-testing-interface
golang-github-mitchellh-go-wordwrap
golang-github-mitchellh-goamz
golang-github-mitchellh-mapstructure
golang-github-mitchellh-reflectwalk
golang-github-mreiferson-go-httpclient
golang-github-mtrmac-gpgme
golang-github-muesli-crunchy
golang-github-mxk-go-flowrate
golang-github-nbutton23-zxcvbn
golang-github-ncw-swift
golang-github-noahdesu-go-ceph
golang-github-npat-efault-poller
golang-github-ns3777k-shodan
golang-github-nsf-termbox-go
golang-github-olekukonko-tablewriter
golang-github-olekukonko-ts
golang-github-olivere-elastic
golang-github-olivere-env
golang-github-onsi-ginkgo
golang-github-onsi-gomega
golang-github-opencontainers-runtime-spec
golang-github-opencontainers-specs
golang-github-openshift-go-json-rest
golang-github-openshift-go-systemd
golang-github-openshift-openshift-sdn
golang-github-ory-dockertest
golang-github-oschwald-maxminddb-golang
golang-github-panjf2000-ants
golang-github-parnurzeal-gorequest
golang-github-patrickmn-go-cache
golang-github-paulrosania-go-charset
golang-github-pelletier-go-buffruneio
golang-github-pelletier-go-toml
golang-github-petar-GoLLRB
golang-github-peterbourgon-ff-3
golang-github-peterh-liner
golang-github-phayes-freeport
golang-github-piprate-json-gold
golang-github-pkg-errors
golang-github-pkg-profile
golang-github-pkg-sftp
golang-github-pkg-term
golang-github-pmezard-go-difflib
golang-github-pquerna-otp
golang-github-projectdiscovery-cdncheck
golang-github-projectdiscovery-gologger
golang-github-projectdiscovery-httpx
golang-github-projectdiscovery-mapcidr
golang-github-projectdiscovery-rawhttp
golang-github-projectdiscovery-retryabledns
golang-github-projectdiscovery-retryablehttp
golang-github-prometheus
golang-github-prometheus-alertmanager
golang-github-prometheus-client_golang
golang-github-prometheus-client_model
golang-github-prometheus-common
golang-github-prometheus-node-exporter
golang-github-prometheus-procfs
golang-github-prometheus-prometheus
golang-github-racker-perigee
golang-github-rackspace-gophercloud
golang-github-rakyll-globalconf
golang-github-rakyll-pb
golang-github-rakyll-statik
golang-github-rcrowley-go-metrics
golang-github-reconquest-barely
golang-github-reconquest-loreley
golang-github-redteampentesting-monsoon
golang-github-reiver-oi
golang-github-reiver-telnet
golang-github-resty
golang-github-rfjakob-eme
golang-github-russross-blackfriday
golang-github-ryanuber-columnize
golang-github-ryanuber-go-glob
golang-github-saintfish-chardet
golang-github-samalba-dockerclient
golang-github-samuel-go-zookeeper
golang-github-seccomp-libseccomp-golang
golang-github-sethgrid-pester
golang-github-sgreben-flagvar
golang-github-shellcode33-vm-detection
golang-github-shiena-ansicolor
golang-github-shurcooL-sanitized_anchor_name
golang-github-skarademir-naturalsort
golang-github-skratchdot-open-golang
golang-github-skynetservices-skydns
golang-github-smartystreets-assertions
golang-github-smartystreets-go-aws-auth
golang-github-smartystreets-goconvey
golang-github-songgao-water
golang-github-spacejam-loghisto
golang-github-spacemonkeygo-flagfile
golang-github-spacemonkeygo-spacelog
golang-github-spf13-afero
golang-github-spf13-cast
golang-github-spf13-cobra
golang-github-spf13-jWalterWeatherman
golang-github-spf13-pflag
golang-github-spf13-viper
golang-github-sqshq-sampler
golang-github-sstarcher-go-okta
golang-github-stacktitan-smb
golang-github-stathat-go
golang-github-stevvooe-resumable
golang-github-streadway-amqp
golang-github-stretchr-objx
golang-github-stretchr-testify
golang-github-syndtr-gocapability
golang-github-syndtr-goleveldb
golang-github-syndtr-gosnappy
golang-github-tchap-go-patricia
golang-github-temoto-robotstxt
golang-github-tent-http-link-go
golang-github-termie-shutil
golang-github-tg-gosortmap
golang-github-tomnomnom-rawhttp
golang-github-tonnerre-golang-pretty
golang-github-ugorji-go
golang-github-urfave-cli
golang-github-valyala-fasthttp
golang-github-valyala-tcplisten
golang-github-vaughan0-go-ini
golang-github-vbatts-tar-split
golang-github-vishvananda-netlink
golang-github-vishvananda-netns
golang-github-vjeantet-asn1-ber
golang-github-vjeantet-ldapserver
golang-github-vmware-govcloudair
golang-github-wsxiaoys-terminal
golang-github-xeipuuv-gojsonpointer
golang-github-xeipuuv-gojsonreference
golang-github-xeipuuv-gojsonschema
golang-github-xiang90-probing
golang-github-xlab-handysort
golang-github-xo-terminfo
golang-github-yl2chen-cidranger
golang-github-yuin-goldmark
golang-github-yvasiyarov-go-metrics
golang-github-yvasiyarov-gorelic
golang-github-yvasiyarov-newrelic_platform_go
golang-github-zmap-zflags
golang-gitlab-esr-fqme
golang-google-golangorg-cloud
golang-googlecode-gcfg
golang-googlecode-go-crypto
golang-googlecode-go-decimal-inf
golang-googlecode-go-exp
golang-googlecode-goauth2
golang-googlecode-gogoprotobuf
golang-googlecode-gomock
golang-googlecode-google-api-client
golang-googlecode-goprotobuf
golang-googlecode-log4go
golang-googlecode-net
golang-googlecode-text
golang-googlecode-tools
golang-googlecode-uuid
golang-gopkg-check
golang-gopkg-data-dog-sqlmock-1
golang-gopkg-logex-1
golang-gopkg-olivere-elastic-5
golang-gopkg-readline-1
golang-gopkg-yaml
golang-nanomsg-mangos-3
golang-vbom-util
golang-x-crypto
golang-x-net
golang-x-sys
golang-x-term
golang-x-text
golang-x-tools
goldendict
golie
golint
golly
goloris
goocanvas
goocanvas2
gooddata-cl
google-api-python-client
google-auth-httplib2
google-authenticator
google-benchmark
google-croscore-fonts
google-droid-fonts
google-gson
google-noto-cjk-fonts
google-roboto-fonts
google-roboto-mono-fonts
google-roboto-slab-fonts
googler
gosnake
gpart
gparted
gpasman
gpaste
gpaw
gpaw-setups
gperftools
gpick
gpredict
gprolog
gpsbabel
gpsd
gputils
gpxviewer
gr-fcdproplus
gr-iqbal
gr-osmosdr
grace
gradio
grads
gramps
granatier
grandr_applet
grantlee-editor
grantlee-qt5
graphite-api
graphite-web
grass
greenisland
greenwave
grepcidr
grib_api
gridsite
grin
grip
grive2
gromacs
group-service
grpc
grsync
grub-customizer
gshhg-gmt-nc4
gsi-openssh
gsmartcontrol
gsoap
gssdp
gssntlmssp
gst123
gstreamer1-rtsp-server
gstreamer1-vaapi
gstreamermm
gsview
gt
gtengine
gtest
gthumb
gtk+
gtk+extra
gtk-gnutella
gtk-layer-shell
gtk-murrine-engine
gtk-recordmydesktop
gtk-sharp-beans
gtk-sharp2
gtk-sharp3
gtk-xfce-engine
gtk2-engines
gtk2hs-buildtools
gtkd
gtkdatabox
gtkdialog
gtkglarea2
gtkglext
gtkimageview
gtksourceview2
gtksourceview3
gtksourceview4
gtkspell
gtkterm
gtkwave
gts
guacamole-server
guake
gucharmap
gudev-sharp
guichan
guidelines-support-library
guile22
guile30
guilt
gulrak-filesystem
gumbo-parser
gupnp
gupnp-igd
guvcview
gv
gwe
gwenhywfar
gwenview
gxkb
gyp
h2
h5py
ha-jdbc
hackrf
hadoop
hakrevdns
halberd
halibut
hamlib
hamster-time-tracker
hans
happy
haproxy18
hardening-wrapper
hash-slinger
hashcat
hashid
haskell-platform
haveged
hawaii-shell
hawaii-widget-styles
haxe
hcxtools
hd-idle
hddtemp
hdf
hdf5
hdhomerun
healpix
heaptrack
heat-cfntools
hedley
heimdal
hercstudio
hercules
hessian
hevea
hexchat
hexchat-autoaway
hfsplus-tools
hg-git
hgsubversion
hgsvn
hibernate
hibernate-commons-annotations
hibernate-hql
hibernate-jpa-2.0-api
hibernate-jpa-2.1-api
hibernate-search
hibernate-validator
hibernate3
hibernate4
hid-replay
hidapi
hiera
highway
hiredis
hirte
hitch
hlint
hokuyoaist
holland
home-assistant-cli
homebank
horai-ume-fonts
hornetq
hostapd
hotspot
hping3
hppc
hpx
hsakmt
hscolour
hsqldb1
hstr
html2ps
html401-dtds
htmldoc
htop
htslib
httpcomponents-asyncclient
httpd-itk
httpdump
httpie
httping
httpress
httprobe
httpry
httrack
hub
hugs98
hulahop
hulk
hw-probe
hwinfo
hwk
hxtools
hydra
hydrogen
hylafax+
hyperscan
hypre
hystrix
i3
i3lock
i3status
iaito
ibus-anthy
ibus-handwrite
icat
iceauth
icecast
icecream
icemon
icewm
icon
icon-naming-utils
icu4j
id3lib
idlj-maven-plugin
idm-console-framework
idris
iec16022
ifstat
iftop
ifuse
ignition-math
ignition-msgs
ignition-transport
igraph
iguanaIR
iio-sensor-proxy
iipsrv
ike-scan
ilbc
im-chooser
imagefactory
imagefactory-plugins
imake
imapfilter
imapsync
imaptest
imhex
iml
imlib
imlib2
impallari-lobster-fonts
imsettings
inception
inchi
incron
indefero
indent
infinispan
inih
iniparser
inkscape-sozi
inkscape-table
inn
innoextract
innotop
inotify-tools
intel-gmmlib
intel-ipp-crypto-mb
intel-ipsec-mb
intel-mediasdk
inxi
ioc-writer
iodine
ioping
ioprocess
iotools
iotop-c
ipcalculator
iperf
ipmctl
ipmctl-compat-02.00.00.3885
ipmiutil
ipsec-tools
ipsilon
iptables-epel
iptstate
ipv6calc
ipv6gen
ipython
irc-otr
irclog2html
irda-utils
irma_configuration
ironjacamar
irrlicht
irssi-xmpp
iscan-firmware
isl
islamic-menus
iso-country-flags
ispc
isync
itcl
itext
itk
itop
iucode-tool
iverilog
ivykis
iwidgets
iwyu
iyfct
jFormatString
jabberd
jabberpy
jabbperpy
jabref
jack-audio-connection-kit
jackson-annotations
jackson-core
jackson-databind
jackson-dataformat-cbor
jackson-dataformat-csv
jackson-dataformat-smile
jackson-dataformat-xml
jackson-dataformat-yaml
jackson-datatype-jdk8
jackson-datatype-jsr310
jackson-jaxrs-providers
jackson-module-jaxb-annotations
jackson-parent
jacoco
jacorb
jakarta-activation
jakarta-servlet
jamonapi
jandex-maven-plugin
janino
jargs
jasmine
jasmine-node
jasperreports
jastow
jasypt
java-dirq
java-latest-openjdk
java-latest-openjdk-portable
java-oauth
java-openjdk
java-runtime-decompiler
java-service-wrapper
javacc
javaparser
javawriter
jaxb
jaxb-api
jaxb-dtd-parser
jaxb2-maven-plugin
jaxws-jboss-httpserver-httpspi
jaxws-undertow-httpspi
jberet
jbig2dec
jblas
jboss-annotations-1.2-api
jboss-batch-1.0-api
jboss-classfilewriter
jboss-common-beans
jboss-common-core
jboss-concurrency-1.0-api
jboss-connector-1.6-api
jboss-connector-1.7-api
jboss-dmr
jboss-ejb-3.2-api
jboss-ejb-client
jboss-ejb3-ext-api
jboss-el-3.0-api
jboss-iiop-client
jboss-integration
jboss-interceptors-1.2-api
jboss-invocation
jboss-j2eemgmt-1.1-api
jboss-jacc-1.4-api
jboss-jacc-1.5-api
jboss-jaspi-1.0-api
jboss-jaspi-1.1-api
jboss-jaxb-2.2-api
jboss-jaxb-intros
jboss-jaxrs-2.0-api
jboss-jaxws-2.2-api
jboss-jms-1.1-api
jboss-jms-2.0-api
jboss-jsf-2.1-api
jboss-jsf-2.2-api
jboss-jsp-2.2-api
jboss-jsp-2.3-api
jboss-jstl-1.2-api
jboss-logging
jboss-logging-tools
jboss-logging-tools1
jboss-logmanager
jboss-logmanager-log4j
jboss-marshalling
jboss-metadata
jboss-modules
jboss-msc
jboss-negotiation
jboss-remote-naming
jboss-remoting
jboss-remoting-jmx
jboss-rmi-1.0-api
jboss-saaj-1.3-api
jboss-sasl
jboss-servlet-3.1-api
jboss-stdio
jboss-threads
jboss-transaction-1.2-api
jboss-transaction-spi
jboss-vfs
jboss-websocket-1.0-api
jboss-websocket-1.1-api
jbossws-api
jbossws-common
jbossws-common-tools
jbossws-cxf
jbossws-parent
jbossws-spi
jbrout
jc
jchardet
jcip-annotations
jcodings
jctools
jcuber
jdeparser
jdeparser1
jdns
jdo-api
jdom
jello
jemalloc
jersey
jersey1
jetbrains-annotations
jetring
jetty-alpn-api
jexcelapi
jfontchooser
jgettext
jglobus
jgraphx
jgroups
jhdf5
jhead
jibx
jigdo
jimtcl
jipijapa
jitterentropy-rngd
jktestpackage
jlibrtp
jmake
jmh
jmock
jmtpfs
jnettop
jo
joe
jogl2
john
johnzon
jopt-simple
josm
jove
jp2a
jpeginfo
jpegoptim
jpegxl
jpf
jpfcodegen
jpype
jq
jruby
js-gl-matrix
js-html5shiv
js-jquery
js-jquery-jqplot
js-jquery-mousewheel
js-jquery-ui
js-jquery-ui-touch-punch
js-jquery1
js-jquery2
js-json
js-jsroot
js-respond
js-sizzle
js8call
jsl
json
json-c12
json-parser
json-path
json-smart
json-table
json11
json_simple
jsoncpp
jsonnet
jsonp
jssc
jts
judy-fk
juk
jul-to-slf4j-stub
julia
julietaula-montserrat-fonts
jumpnbump
jupp
jwhois
jxrlib
k3b
k3b-ape
k4dirstat
kBuild
kabi-dw
kaccounts-integration
kaccounts-providers
kactivitymanagerd
kaddressbook
kakoune
kalarm
kalgebra
kalibrate-rtl
kamera
kamoso
kanagram
kanjistrokeorders-fonts
kapman
kapow
kapptemplate
kasumi
kate
katomic
kbackup
kbibtex
kblackbox
kblocks
kbounce
kbruch
kcachegrind
kcalc
kcat
kcbench
kcbench-data
kcharselect
kcm-fcitx
kcm_systemd
kcm_wacomtablet
kcolorchooser
kcolorpicker
kcron
kdb
kde-cli-tools
kde-connect
kde-dev-scripts
kde-dev-utils
kde-filesystem
kde-gtk-config
kde-partitionmanager
kde-plasma-networkmanagement-extras
kde-plasma-nm
kde-plasma-redshift
kde-print-manager
kde-settings
kdebase4
kdebugsettings
kdecoration
kdeedu
kdeedu-data
kdegraphics-mobipocket
kdegraphics-thumbnailers
kdelibs-webkit
kdelibs3
kdelibs4
kdenetwork-filesharing
kdenlive
kdepim-addons
kdepim-apps-libs
kdepim-runtime
kdepim3
kdeplasma-addons
kdesdk-kioslaves
kdesdk-thumbnailers
kdesvn
kdevelop
kdevelop-pg-qt
kdevplatform
kdf
kdiagram
kdialog
kdiamond
kdiff3
kdiskmark
kdnssd
kdocker
kdsoap
kea
keditbookmarks
keepass
keepassx
keepassx2
keepassxc
kerberoast
kernel-module-thinkpad
kexi
key-mon
keybinder
keychain
keychecker
keyrings-filesystem
kf5
kf5-akonadi-calendar
kf5-akonadi-contacts
kf5-akonadi-mime
kf5-akonadi-notes
kf5-akonadi-search
kf5-akonadi-server
kf5-attica
kf5-audiocd-kio
kf5-baloo
kf5-bluez-qt
kf5-calendarsupport
kf5-eventviews
kf5-frameworkintegration
kf5-gpgmepp
kf5-grantleetheme
kf5-incidenceeditor
kf5-kactivities
kf5-kactivities-stats
kf5-kalarmcal
kf5-kapidox
kf5-karchive
kf5-kauth
kf5-kblog
kf5-kbookmarks
kf5-kcalendarcore
kf5-kcalendarutils
kf5-kcmutils
kf5-kcodecs
kf5-kcompletion
kf5-kconfig
kf5-kconfigwidgets
kf5-kcontacts
kf5-kcoreaddons
kf5-kcrash
kf5-kdav
kf5-kdbusaddons
kf5-kdeclarative
kf5-kded
kf5-kdelibs4support
kf5-kdesignerplugin
kf5-kdesu
kf5-kdewebkit
kf5-kdgantt2
kf5-kdnssd
kf5-kdoctools
kf5-kemoticons
kf5-kfilemetadata
kf5-kglobalaccel
kf5-kguiaddons
kf5-kholidays
kf5-khtml
kf5-ki18n
kf5-kiconthemes
kf5-kidentitymanagement
kf5-kidletime
kf5-kimageformats
kf5-kimap
kf5-kinit
kf5-kio
kf5-kipi-plugins
kf5-kirigami
kf5-kirigami2
kf5-kirigami2-addons
kf5-kitemmodels
kf5-kitemviews
kf5-kitinerary
kf5-kjobwidgets
kf5-kjs
kf5-kjsembed
kf5-kldap
kf5-kmailtransport
kf5-kmbox
kf5-kmediaplayer
kf5-kmime
kf5-knewstuff
kf5-knotifications
kf5-knotifyconfig
kf5-kontactinterface
kf5-kpackage
kf5-kparts
kf5-kpeople
kf5-kpimtextedit
kf5-kpkpass
kf5-kplotting
kf5-kpty
kf5-kquickcharts
kf5-kross
kf5-kross-interpreters
kf5-krunner
kf5-kservice
kf5-ksmtp
kf5-ktexteditor
kf5-ktextwidgets
kf5-ktnef
kf5-kunitconversion
kf5-kwallet
kf5-kwayland
kf5-kwidgetsaddons
kf5-kwindowsystem
kf5-kxmlgui
kf5-kxmlrpcclient
kf5-libgravatar
kf5-libkcddb
kf5-libkcompactdisc
kf5-libkdcraw
kf5-libkdepim
kf5-libkexiv2
kf5-libkface
kf5-libkgeomap
kf5-libkipi
kf5-libkleo
kf5-libksane
kf5-libksieve
kf5-libktorrent
kf5-mailcommon
kf5-mailimporter
kf5-messagelib
kf5-modemmanager-qt
kf5-networkmanager-qt
kf5-pimcommon
kf5-plasma
kf5-prison
kf5-purpose
kf5-solid
kf5-sonnet
kf5-syndication
kf5-syntax-highlighting
kf5-threadweaver
kfc
kfind
kfloppy
kfourinline
kgb-bot
kgeography
kgoldrunner
kgpg
kgraphviewer
khangman
khelpcenter
khotkeys
kicad
kig
kigo
kile
kile-i18n
killbots
kim-api
kimageannotator
kimdaba
kinfocenter
kio-admin
kio-extras
kio-gdrive
kio_mtp
kirc
kiriki
kiss-fft
kiten
kitty
kiwi
kiwi-boxed-plugin
kiwix-desktop
kiwix-lib
kjumpingcube
klavaro
klee
kleopatra
klettres
klickety
klines
kmag
kmahjongg
kmail
kmail-account-wizard
kmenuedit
kmines
kmix
kmodtool
kmousetool
kmouth
kmplot
kmscon
kmymoney
knavalbattle
knetwalk
knock
knot
knot-resolver
knotes
koan
kobo
kohsuke-pom
koji
koji-osbuild
koji-tool
kokkos
kolf
kollision
kolourpaint
kompare
kompose
konqueror
konquest
konsole5
kontact
konversation
korganizer
koschei
koules
kpat
kpcli
kpeoplevcard
kpipewire
kpmcore
kproperty
kpublictransport
kqtquickcharts
kquickimageeditor
krb5-auth-dialog
krdc
krename
kreport
kreversi
krfb
krita
kronosnet
kronosnet-epel
kruler
krusader
ks-install
ksanecore
kscreen
kscreenlocker
kshisen
ksirk
ksnakeduel
ksnip
kspaceduel
ksquares
ksshaskpass
kstars
kstart
ksudoku
ksysguard
ksystemlog
ksystemstats
kteatime
ktextaddons
ktimer
ktoblzcheck
ktorrent
ktouch
ktuberling
kturtle
kubernetes-ansible
kubrick
kup
kuserfeedback
kwalletcli
kwalletmanager5
kwayland-integration
kwayland-server
kwebkitpart
kwin
kwordquiz
kwrited
kyotocabinet
labiryntowy-fonts
ladspa-autotalent-plugins
ladspa-swh-plugins
ladvd
lagrange
lame
lammps
lapack
lash
lasi
lastpass-cli
laszip
latex2rtf
latexmk
lato-fonts
layer-shell-qt
layla-fonts
lazarus
lbd
lbzip2
lbzip2-utils
lcdtest
lcg-infosites
lcgdm
lcmaps
lcov
ldapdiff
ldapdomaindump
ldapvi
ldc
ldc1.30
lde
ldeep
leafnode
leafpad
leatherman
lecm
lector
ledger
lensfun
leptonica
lesstif
leveldb
leveldb-java
leveldbjni
levien-inconsolata-fonts
levmar
lexertl14
lhapdf
lib3270
lib3ds
lib3mf
libASL
libAfterImage
libHX
libIDL
libQGLViewer
libXISF
libXNVCtrl
libXpresent
libabigail
libaccounts-glib
libaccounts-qt
libaec
libaesgm
libaiff
libalkimia
libappindicator
libappindicator-sharp
libapreq2
libarrow
libart_lgpl
libasr
libass
libavc1394
libavif
libavif0.10
libavtp
libb2
libb64
libbgpdump
libbinio
libblockdev
libblocksruntime
libbluray
libbpf
libbraiding
libbs2b
libbsd
libbson
libburn-epel
libburn1
libcaca
libcamera
libcbor
libccd
libccp4
libcdaudio
libcddb
libcdr-epel
libcdson
libcec
libcerf
libchewing
libcint
libclaw
libcli
libcloudproviders
libcompizconfig
libconfuse
libcorrect
libcouchbase
libcryptui
libcrystalhd
libcsv
libcue
libcutl
libcxx
libcxxabi
libdap
libdasm
libdazzle-epel
libdb4
libdbi
libdbi-drivers
libdbusmenu
libdc1394
libdca
libdeflate
libdfp
libdigidocpp
libdirq
libdiscid
libdispatch
libdivide
libdkimpp
libdmtx
libdnet
libdv
libdvbpsi
libdwarf
libdxflib
libdxfrw
libeXosip2
libeatmydata
libebml
libebur128
libecb
libecpint
libeio
libemu
libepoxy
liberasurecode
libesedb
libesmtp
libetpan
libev-epel
libevdevPlus
libewf
libexplain
libfakekey
libfaketime
libfap
libffado
libfido2
libfilezilla
libflatarray
libfli
libfm
libfm-qt
libforensic1394
libfreehand-epel
libfreenect
libftdi
libfullock
libgadu
libgda
libgdiplus
libgdither
libgdl
libgeotiff
libgit2
libgit2_1.3
libglade2
libglvnd
libgnt
libgpiod
libgringotts
libgsasl
libgssh
libgsystem
libgta
libgudev
libguess
libgxim
libhandy-epel
libharu
libhawaii
libheif
libhttpserver
libibcommon
libicns
libid3tag
libident
libidn
libidn2
libiec61883
libimagequant
libimobiledevice
libindi
libindicator
libinfinity
libinjection
libinstpatch
libint
libint2
libiodbc
libipt
libircclient
libirman
libisds
libisoburn
libisoburn1
libisofs1
libitl
libjaylink
libjoedog
libjson-rpc-cpp
libjwt
libkate
libkdegames
libkdtree++
libkdumpfile
libkeduvocdocument
libkgapi
libkkc
libkmahjongg
libkml
libkolabxml
libkomparediff2
libkscreen-qt5
libksysguard
libktorrent
liblas
liblbfgs
libldm
liblerc
liblinear
liblqr-1
liblrdf
liblxi
liblxqt
liblzf
libmacaroons
libmad
libmatekbd
libmatemixer
libmateweather
libmatroska
libmcrypt
libmd
libmediainfo
libmetalink
libmfx
libmicrodns
libmikmod
libmm-qt
libmodbus
libmodplug
libmodsecurity
libmodulemd2
libmongo-client
libmongocrypt
libmp4v2
libmpcdec
libmpd
libmpdclient
libmpeg2
libmspack
libmspub-epel
libmusicbrainz5
libmysofa
libnatpmp
libnatspec
libndn-cxx
libnet10
libnetconf2
libnetfilter_cthelper
libnetfilter_cttimeout
libnetfilter_log
libnfs
libnice
libnids
libnm-qt
libnova
libnss-mysql
libntirpc
libntlm
libnxz
liboauth
libodb
libodb-boost
libodb-mysql
libodb-pgsql
libodb-qt
libodb-sqlite
libofx
liboggz
libolm
libomemo
libomxil-bellagio
libopenmpt
libopenshot-audio
liboping
libopkele
libopm
libopts
liborc
libosip2
libosmo-dsp
libosmocore
libotr
libowfat
libpagemaker-epel
libpeas-loader-python3
libpgf
libplacebo
libplist
libpqxx
libprelude
libpreludedb
libpri
libprojectM
libprometheus-cpp
libpsl
libptytty
libqalculate
libqb
libqb-epel
libqtolm
libqtxdg
libqtxdg-qt4
libquotient
libqxp-epel
libqxt
libqxt-qt5
libraqm
libraw1394
librcc
librcd
librdkafka
libre
librecad
libreoffice-TexMaths
libresample
libretls
librist
librsync
librttopo
librx
libs3
libsafec
libsass
libscigraphica
libscn
libscrypt
libserf
libserialport
libsidplayfp
libsignal-protocol-c
libsigsegv
libslz
libsmbios
libsmbios-cpp
libsodium
libsodium13
libspatialaudio
libspatialite
libspf2
libspnav
libsqlite3x
libsquish
libss7
libssh
libssh2
libstatgrab
libstemmer
libstorj
libstroke
libstrophe
libsvm
libsysstat
libtabe
libtelnet
libtermkey
libticables2
libticalcs2
libticonv
libtifiles2
libtiger
libtimidity
libtins
libtomcrypt
libtommath
libtorrent
libtraceevent
libtranslate
libtree-ldd
libu2f-host
libuInputPlus
libucil
libudfread
libuecc
libuev
libunicap
libunicapgtk
libunwind
libupnp
liburing-epel
libusbauth-configparser
libusbmuxd
libuv
libv3270
libva-intel-hybrid-driver
libva-utils
libva-vdpau-driver
libvdpau-va-gl
libvmime
libvncserver
libvterm
libwbxml
libwebsockets
libwhirlpool
libwnck
libx86
libx86emu
libxc
libxfce4ui
libxfce4util
libxml
libxml++
libxmp
libxo
libxsmm
libyang
libykneomgr
libytnef
libyubikey
libyui
libyui-bindings
libyui-gtk
libyui-ncurses
libyui-qt
libyui-qt-graph
libyuv
libzen
libzmf-epel
libzrtpcpp
license-validate
liferea
light-locker
lightcouch
lightdm
lightdm-autologin-greeter
lightdm-gtk
lightdm-gtk-greeter-settings
lightdm-kde
lightdm-settings
lightpack
lighttpd
lilv
lilypond
limnoria
linenoise
linkchecker
links
linode-cli
linsim
linux-libertine-fonts
linux-user-chroot
linux_logo
liquibase
liquidctl
lirc
litecli
litehtml
litmus
livecd-tools
livereload
livesys-scripts
liveusb-creator
lizardfs
lldpd
llhttp
llvm
llvm11
llvm12
llvm13
llvm14
llvm3.7
llvm3.9
llvm35
llvm5.0
llvm6.0
llvm7.0
llvm9.0
lm_sensors-epel
lmdb
lmdb-epel
lmdbxx
lmfit
lnav
lnst
lockfile-progs
log4c
log4cplus
log4cpp
log4cxx
log4j-jboss-logmanager
log4j12
log4net
log4shib
logback
logcheck
logisim
lokalize
lollypop
loopabull
loudmouth
lout
love
lpcnetfreedv
lpf
lrbd
lsdvd
lsfrom
lskat
lsp-plugins
lsyncd
lttng-tools
lttng-ust
ltunify
lua-alt-getopt
lua-argparse
lua-basexx
lua-binaryheap
lua-bit32
lua-bitop
lua-compat53
lua-cqueues
lua-cyrussasl
lua-dbi
lua-event
lua-expat
lua-fifo
lua-filesystem
lua-fun
lua-http
lua-json
lua-ldap
lua-lpeg
lua-lpeg-patterns
lua-luaossl
lua-lunit
lua-lunitx
lua-luv
lua-lxc
lua-md5
lua-mmdb
lua-moonscript
lua-mpack
lua-posix
lua-psl
lua-readline
lua-rpm-macros
lua-sec
lua-socket
lua-term
lua-unbound
lua5.1-lpeg
luajit
luarocks
lucene
lugaru
lumina-desktop
lutris
lv
lv2
lxc
lxcfs
lxi-tools
lximage-qt
lxmenu-data
lxqt-about
lxqt-admin
lxqt-build-tools
lxqt-common
lxqt-config
lxqt-config-randr
lxqt-globalkeys
lxqt-l10n
lxqt-notificationd
lxqt-openssh-askpass
lxqt-panel
lxqt-policykit
lxqt-powermanagement
lxqt-qtplugin
lxqt-runner
lxqt-session
lxqt-sudo
lxqt-themes
lxqt-wallet
lynis
lyra
lyx
lz4
lzip
lziprecover
lzma
lzma-sdk
lzma-sdk457
m2crypto
mISDN
mMass
mac-encheez
mac-robber
macromilter
maddy
madplay
maeparser
magicmirror
mahout-collection-codegen-plugin
mail-notification
maildrop
mailgraph
mailman3-fedmsg-plugin
makedepf90
makeself
maliit-framework
maliit-keyboard
maloc
man-pages-de
man2html
mandoc
manifest-tool
mapserver
marble
marco
mariadb-connector-c
marked
mash
mass3
masscan
massdns
massif-visualizer
mate-applets
mate-backgrounds
mate-calc
mate-common
mate-control-center
mate-desktop
mate-icon-theme
mate-icon-theme-faenza
mate-media
mate-menu
mate-menus
mate-notification-daemon
mate-panel
mate-polkit
mate-power-manager
mate-screensaver
mate-sensors-applet
mate-session-manager
mate-settings-daemon
mate-system-monitor
mate-terminal
mate-themes
mate-themes-extras
mate-user-admin
mate-user-guide
mate-utils
mathex
mathgl
mathjax
mathjax3
matio
maven-checkstyle-plugin
maven-injection-plugin
maven-jaxb2-plugin
maven-patch-plugin
maven-processor-plugin
mawk
maxima
mb2md
mbedtls
mbox-importer
mbrowse
mbuffer
mcabber
mchange-commons
mcrcon
mcrypt
md5deep
mdbtools
mdns-repeater
mdns-scan
meanwhile
med
media-player-info
mediaconch
mediainfo
mediawiki1.35
mediawiki123-openid
medusa
meg
megatools
meld
memavaild
memkind
memoryfilesystem
menu-cache
menulibre
mercurial
meshbird
meshlab
meson
meta-test-family
metacity
metadata-extractor2
metainf-services
metis
metrics2mqtt
metslib
mftrace
mg
mgetty
mhash
mhonarc
micro
microdns
miglayout
mikmod
miller
milter-greylist
milter-regex
mimalloc
mimedefang
mimepull
mimetex
mimetic
minder
mine_detector
minetest
minetestmapper
mingw-SDL2
mingw-boost
mingw-dlfcn
mingw-glslang
mingw-lcms2
mingw-libIDL
mingw-libgcrypt
mingw-libgpg-error
mingw-libidn2
mingw-libjpeg-turbo
mingw-libpng
mingw-libtiff
mingw-libxml2
mingw-libxslt
mingw-proj
mingw-spirv-headers
mingw-spirv-tools
mingw-vulkan-headers
mingw-vulkan-loader
mingw-vulkan-tools
mingw-vulkan-validation-layers
miniaudio
minimodem
minipro
minisign
miniupnpc
miniz
minizip
minizip1.2
mint-themes
mint-themes-gtk3
mint-x-icons
mint-y-icons
mint-y-theme
mintlocale
mintmenu
minuet
mirmon
mirrorbrain
mirrormanager2
mkdocs
mkosi
mkrdns
mktorrent
mkvtoolnix
mld2p4
mle
mlmmj
mlpack
mlt
mlton
mm3d
mmdb2
mmg3d
mmlib
mmtf-cpp
mmv
moarvm
mocha
mock
mock-centos-sig-configs
mock-core-configs
mockito
mod_auth_cas
mod_auth_ntlm_winbind
mod_auth_openid
mod_auth_token
mod_authnz_external
mod_cluster
mod_evasive
mod_flvx
mod_form
mod_geoip
mod_gnutls
mod_limitipconn
mod_log_post
mod_markdown
mod_maxminddb
mod_perl
mod_qos
mod_ruid2
mod_security3
mod_suphp
mod_xsendfile
modem-manager-gui
module-build-service
modulemd
mogilefs-server
moin
mojarra
mold
molequeue
mom
mongo-c-driver
mongo-cxx-driver
mongo-java-driver
mongoose
monit
monitor-edid
monitorix
monkeysphere
mono
mono-addins
mono-basic
mono-cecil
mono-zeroconf
monocypher
monotone
moodle
moodycamel-concurrentqueue
moon-buggy
moos
mopac
moreutils
morfologik-stemming
mosh
mosquitto
most
mote
mousepad
movit
moyogo-molengo-fonts
mozc
mozilla-adblockplus
mozilla-fira-fonts
mozilla-https-everywhere
mozilla-noscript
mozilla-requestpolicy
mozilla-ublock-origin
mozilla-zilla-slab-fonts
mozjs38
mozjs45
mozjs78
mozo
mp
mp3fs
mp3gain
mpark-variant
mpc
mpdecimal
mph-2b-damase-fonts
mpi4py
mpir
mpop
mpris-scrobbler
mpssh
mpv
mqtt-randompub
mqttcli
mrack
mrbs
mrrescue
mscgen
msed
msgpack
msgpuck
msktutil
msmtp
msoffcrypto-tool
msr-tools
mtpaint
mtxclient
muParser
muffin
mujs
multicat
multilib-rpm-config
multitail
multiwatch
mumble
munge
munin
munipack
mup
mupdf
mussh
mustache
mustache-java
mxml
mxparser
mycli
mylvmbackup
myproxy
myrepos
mysql++
mysql-administrator
mysql-connector-python
mysql-mmm
mysql-proxy
mysql-query-browser
mysql-utilities
mysqlreport
mysqltuner
mytop
naabu
nacl
nagelfar
nagios
nagios-plugins
nagios-plugins-bdii
nagios-plugins-bonding
nagios-plugins-check-updates
nagios-plugins-fts
nagios-plugins-lcgdm
nagios-plugins-openmanage
nagios-plugins-snmp-disk-proc
nanomsg
nant
narayana
nativefiledialog-extended
nautilus-image-converter
nautilus-python
nawk
nbd
nbd-runner
nbdkit
nbtscan
ncdu
ncftp
ncid
ncl
nco
ncompress
ncrack
ncurses-epel
ncview
ndisc6
ndjbdns
ndppd
ne
neXtaw
nebula
nec2c
nedit
needrestart
neethi
nekohtml
nekovm
nemo
nemo-extensions
neochat
neofetch
neomutt
neovim
neso
netatalk
netbox
netbsd-iscsi
netcat
netcdf
netcdf-cxx
netcdf-cxx4
netcdf-fortran
netcdf4-python
netconsd
netdata
netdisco
netgen-mesher
nethack
nethack-falconseye
nethogs
netmask
netperf
netplan
netresolve
netscanner
netsed
netsniff-ng
netstat-monitor
netty
netty-tcnative
netty-xnio-transport
netty3
neurord
newpg
nex
nextcloud
nextcloud-client
nexus
nf3d
nfacct
nfdump
nfft
nfoview
nfspy
nghttp2
nginx
nginx-mod-modsecurity
nginx-mod-vts
ngircd
ngrep
nheko
nickle
nightview
nikto
ninja-build
nkf
nload
nmbscan
nmh
nmon
nng
nnn
no-more-secrets
node-gyp
nodejs
nodejs-abbrev
nodejs-after
nodejs-agent-base
nodejs-ain2
nodejs-alter
nodejs-amdefine
nodejs-ansi
nodejs-ansi-font
nodejs-ansi-regex
nodejs-ansi-styles
nodejs-ansicolors
nodejs-ansidiff
nodejs-ansistyles
nodejs-aproba
nodejs-archiver
nodejs-archy
nodejs-are-we-there-yet
nodejs-argparse
nodejs-argsparser
nodejs-array-differ
nodejs-array-filter
nodejs-array-flatten
nodejs-array-foreach
nodejs-array-index
nodejs-array-map
nodejs-array-reduce
nodejs-arrify
nodejs-as-number
nodejs-asap
nodejs-ascii-tree
nodejs-asn1
nodejs-assert-plus
nodejs-assertion-error
nodejs-ast-traverse
nodejs-ast-types
nodejs-astral
nodejs-astral-angular-annotate
nodejs-astral-pass
nodejs-async
nodejs-async-cache
nodejs-async-each
nodejs-async-some
nodejs-aws-sign
nodejs-aws-sign2
nodejs-backbone
nodejs-balanced-match
nodejs-base64-js
nodejs-base64-url
nodejs-basic-auth
nodejs-basic-auth-connect
nodejs-basic-auth-parser
nodejs-batch
nodejs-better-assert
nodejs-bignumber-js
nodejs-bindings
nodejs-bl
nodejs-block-stream
nodejs-bluebird
nodejs-body-parser
nodejs-boolbase
nodejs-boom
nodejs-brace-expansion
nodejs-breakable
nodejs-browser-request
nodejs-bson
nodejs-buf-compare
nodejs-buffer-crc32
nodejs-buffer-equal
nodejs-buffertools
nodejs-bufferutil
nodejs-builtin-modules
nodejs-builtins
nodejs-bunker
nodejs-burrito
nodejs-bytes
nodejs-caller-callsite
nodejs-caller-path
nodejs-callsite
nodejs-callsites
nodejs-camel-case
nodejs-caniuse-db
nodejs-chai
nodejs-chainsaw
nodejs-chalk
nodejs-change-case
nodejs-char-spinner
nodejs-character-parser
nodejs-charm
nodejs-child-process-close
nodejs-chmodr
nodejs-chownr
nodejs-cjson
nodejs-clean-css
nodejs-cli
nodejs-cli-color
nodejs-clone
nodejs-cls
nodejs-cmd-shim
nodejs-co
nodejs-codemirror
nodejs-collections
nodejs-colors
nodejs-columnify
nodejs-combined-stream
nodejs-commander
nodejs-commoner
nodejs-commonmark
nodejs-component-emitter
nodejs-compress-commons
nodejs-compressible
nodejs-compression
nodejs-concat-map
nodejs-concat-stream
nodejs-config-chain
nodejs-connect
nodejs-connect-livereload
nodejs-connect-timeout
nodejs-console-browserify
nodejs-console-dot-log
nodejs-constant-case
nodejs-constantinople
nodejs-content-type
nodejs-cookie
nodejs-cookie-jar
nodejs-cookie-parser
nodejs-cookie-signature
nodejs-cookiejar
nodejs-core-util-is
nodejs-couch-login
nodejs-crc32-stream
nodejs-cryptiles
nodejs-css
nodejs-css-parse
nodejs-css-select
nodejs-css-stringify
nodejs-css-what
nodejs-csscomb-core
nodejs-csslint
nodejs-cssom
nodejs-csurf
nodejs-csv-generate
nodejs-csv-spectrum
nodejs-ctype
nodejs-cycle
nodejs-d
nodejs-dashdash
nodejs-data-uri-to-buffer
nodejs-date-now
nodejs-dateformat
nodejs-debug
nodejs-debuglog
nodejs-deep-eql
nodejs-deep-equal
nodejs-deep-extend
nodejs-deeper
nodejs-defence
nodejs-defence-cli
nodejs-deferred
nodejs-defined
nodejs-defs
nodejs-degenerator
nodejs-delayed-stream
nodejs-delegates
nodejs-dep-graph
nodejs-depd
nodejs-dependency-lister
nodejs-destroy
nodejs-detective
nodejs-dezalgo
nodejs-diff
nodejs-difflet
nodejs-difflib
nodejs-docopt
nodejs-domelementtype
nodejs-domhandler
nodejs-domutils
nodejs-dot-case
nodejs-dreamopt
nodejs-dryice
nodejs-dtree
nodejs-duplex
nodejs-duplexer
nodejs-duplexer3
nodejs-duplexify
nodejs-each-async
nodejs-ebnf-parser
nodejs-editor
nodejs-ee-first
nodejs-ejs
nodejs-end-of-stream
nodejs-entities
nodejs-epel
nodejs-error-ex
nodejs-errorhandler
nodejs-errs
nodejs-es5-ext
nodejs-es5-shim
nodejs-es6-iterator
nodejs-es6-promise
nodejs-es6-symbol
nodejs-es6-weak-map
nodejs-escape-html
nodejs-escape-regexp-component
nodejs-escape-string-regexp
nodejs-escodegen
nodejs-esprima
nodejs-esprima-harmony-jscs
nodejs-estraverse
nodejs-esutils
nodejs-etag
nodejs-event-emitter
nodejs-event-stream
nodejs-eventemitter2
nodejs-events-to-array
nodejs-exit
nodejs-expect-dot-js
nodejs-express
nodejs-express-session
nodejs-extend
nodejs-extsprintf
nodejs-eyes
nodejs-far
nodejs-faye-websocket
nodejs-fd
nodejs-fd-slicer
nodejs-fg-lodash
nodejs-file-uri-to-path
nodejs-filed
nodejs-fileset
nodejs-finalhandler
nodejs-findup-sync
nodejs-forever-agent
nodejs-form-data
nodejs-formatio
nodejs-formidable
nodejs-freetree
nodejs-fresh
nodejs-from
nodejs-fs-extra
nodejs-fs-vacuum
nodejs-fs-write-stream-atomic
nodejs-fs2
nodejs-fstream
nodejs-fstream-ignore
nodejs-fstream-npm
nodejs-ftp
nodejs-gauge
nodejs-gaze
nodejs-generate-function
nodejs-generate-object-property
nodejs-generic-pool
nodejs-get-stdin
nodejs-get-uri
nodejs-getobject
nodejs-github-url-from-git
nodejs-github-url-from-username-repo
nodejs-glob
nodejs-globule
nodejs-gonzales-pe
nodejs-got
nodejs-graceful-fs
nodejs-graceful-readlink
nodejs-grip
nodejs-growl
nodejs-grunt
nodejs-grunt-angular-templates
nodejs-grunt-banner
nodejs-grunt-cli
nodejs-grunt-compare-size
nodejs-grunt-contrib-clean
nodejs-grunt-contrib-concat
nodejs-grunt-contrib-connect
nodejs-grunt-contrib-csslint
nodejs-grunt-contrib-cssmin
nodejs-grunt-contrib-htmlmin
nodejs-grunt-contrib-internal
nodejs-grunt-contrib-less
nodejs-grunt-contrib-nodeunit
nodejs-grunt-contrib-requirejs
nodejs-grunt-contrib-uglify
nodejs-grunt-contrib-watch
nodejs-grunt-git-authors
nodejs-grunt-html-validation
nodejs-grunt-init
nodejs-grunt-legacy-util
nodejs-grunt-saucelabs
nodejs-grunt-sed
nodejs-grunt-util-args
nodejs-grunt-util-options
nodejs-grunt-util-process
nodejs-grunt-util-property
nodejs-handlebars
nodejs-har-validator
nodejs-has-ansi
nodejs-has-color
nodejs-has-unicode
nodejs-hash_file
nodejs-hashish
nodejs-hawk
nodejs-heap
nodejs-highlight-js
nodejs-hock
nodejs-hoek
nodejs-hooker
nodejs-hosted-git-info
nodejs-html-minifier
nodejs-htmlparser2
nodejs-http-errors
nodejs-http-proxy-agent
nodejs-http-signature
nodejs-https-proxy-agent
nodejs-i
nodejs-i18n-transform
nodejs-iconv-lite
nodejs-iferr
nodejs-imurmurhash
nodejs-infinity-agent
nodejs-inherit
nodejs-inherits
nodejs-inherits1
nodejs-ini
nodejs-init-package-json
nodejs-install
nodejs-int64-buffer
nodejs-ip
nodejs-is-absolute
nodejs-is-arrayish
nodejs-is-builtin-module
nodejs-is-lower-case
nodejs-is-my-json-valid
nodejs-is-property
nodejs-is-regexp
nodejs-is-relative
nodejs-is-stream
nodejs-is-typedarray
nodejs-is-unc-path
nodejs-is-upper-case
nodejs-is-windows
nodejs-isexe
nodejs-iso8601
nodejs-isodate
nodejs-isstream
nodejs-istanbul
nodejs-jade
nodejs-jasmine-growl-reporter
nodejs-jasmine-reporters
nodejs-jison
nodejs-jison-lex
nodejs-jju
nodejs-joose
nodejs-joosex-simplerequest
nodejs-js-base64
nodejs-js-yaml
nodejs-jscoverage
nodejs-json-diff
nodejs-json-parse-helpfulerror
nodejs-json-stringify-safe
nodejs-jsonfile
nodejs-jsonify
nodejs-jsonparse
nodejs-jsonpointer
nodejs-jsonselect
nodejs-jsonstream
nodejs-jwt-simple
nodejs-keypress
nodejs-klaw
nodejs-lazystream
nodejs-lcov-parse
nodejs-less
nodejs-lex-parser
nodejs-line-reader
nodejs-load-grunt-tasks
nodejs-lockfile
nodejs-lodash
nodejs-log-symbols
nodejs-lolex
nodejs-lower-case
nodejs-lower-case-first
nodejs-lowercase-keys
nodejs-lru-cache
nodejs-lru-queue
nodejs-map-stream
nodejs-markdown
nodejs-maxmin
nodejs-mdurl
nodejs-media-typer
nodejs-memoizee
nodejs-merge-descriptors
nodejs-method-override
nodejs-methods
nodejs-mime
nodejs-mime-db
nodejs-mime-types
nodejs-mimeparse
nodejs-minimatch
nodejs-minimist
nodejs-minstache
nodejs-mkdirp
nodejs-mkfiletree
nodejs-mock-fs
nodejs-mongodb
nodejs-mongodb-core
nodejs-monocle
nodejs-morgan
nodejs-ms
nodejs-muffin
nodejs-multiline
nodejs-multimatch
nodejs-multiparty
nodejs-mute-stream
nodejs-mysql
nodejs-nan
nodejs-nan0
nodejs-nan1
nodejs-ncp
nodejs-negotiator
nodejs-netmask
nodejs-next
nodejs-next-tick
nodejs-node-int64
nodejs-node-print
nodejs-node-static
nodejs-node-uuid
nodejs-node-xmpp
nodejs-nomnom
nodejs-nopt
nodejs-noptify
nodejs-normalize-git-url
nodejs-normalize-package-data
nodejs-normalize-path
nodejs-npm-package-arg
nodejs-npm-registry-client
nodejs-npm-stats
nodejs-npm-user-validate
nodejs-npmconf
nodejs-npmlog
nodejs-nsp-api
nodejs-nsp-audit-shrinkwrap
nodejs-nth-check
nodejs-oauth-sign
nodejs-object-assign
nodejs-on-finished
nodejs-on-headers
nodejs-once
nodejs-onetime
nodejs-only-shallow
nodejs-oop
nodejs-open
nodejs-opener
nodejs-opn
nodejs-optimist
nodejs-options
nodejs-opts
nodejs-os-homedir
nodejs-os-tmpdir
nodejs-osenv
nodejs-pac-proxy-agent
nodejs-pac-resolver
nodejs-package
nodejs-package-info
nodejs-packaging
nodejs-pad
nodejs-paperboy
nodejs-param-case
nodejs-parse-json
nodejs-parserlib
nodejs-pascal-case
nodejs-path-array
nodejs-path-case
nodejs-path-exists
nodejs-path-is-absolute
nodejs-path-is-inside
nodejs-pause
nodejs-pause-stream
nodejs-pegjs
nodejs-pend
nodejs-pinkie
nodejs-pinkie-promise
nodejs-pkginfo
nodejs-portscanner
nodejs-posix-getopt
nodejs-prepend-http
nodejs-pretty-bytes
nodejs-private
nodejs-promise
nodejs-prompt
nodejs-promzard
nodejs-propagate
nodejs-proto-list
nodejs-proxy
nodejs-proxy-agent
nodejs-proxyquire
nodejs-pubcontrol
nodejs-q
nodejs-q-io
nodejs-qs
nodejs-qtdatastream
nodejs-rainbowsocks
nodejs-range-parser
nodejs-raw-body
nodejs-rc
nodejs-read
nodejs-read-all-stream
nodejs-read-cmd-shim
nodejs-read-installed
nodejs-read-package-json
nodejs-read-package-tree
nodejs-readable-stream
nodejs-readdir-scoped-modules
nodejs-readdirp
nodejs-realize-package-specifier
nodejs-recast
nodejs-reduce-component
nodejs-regenerator
nodejs-registry-url
nodejs-relateurl
nodejs-repl
nodejs-replace
nodejs-replace-require-self
nodejs-request
nodejs-requestretry
nodejs-require-all
nodejs-require-cs
nodejs-require-directory
nodejs-require-inject
nodejs-require-uncached
nodejs-requirejs
nodejs-resolve
nodejs-resolve-from
nodejs-response-time
nodejs-retry
nodejs-revalidator
nodejs-rewire
nodejs-rhea
nodejs-rimraf
nodejs-rndm
nodejs-ronn
nodejs-run-parallel-limit
nodejs-runforcover
nodejs-safe-buffer
nodejs-samsam
nodejs-sauce-tunnel
nodejs-saucelabs
nodejs-sax
nodejs-semver
nodejs-send
nodejs-sentence-case
nodejs-seq
nodejs-serve-index
nodejs-serve-static
nodejs-set-immediate-shim
nodejs-sha
nodejs-shelljs
nodejs-should
nodejs-should-promised
nodejs-showdown
nodejs-sigmund
nodejs-silent-npm-registry-client
nodejs-simple-assert
nodejs-simple-fmt
nodejs-simple-is
nodejs-sinon
nodejs-slide
nodejs-smart-buffer
nodejs-snake-case
nodejs-snockets
nodejs-sntp
nodejs-socks-client
nodejs-socks-proxy-agent
nodejs-source-map
nodejs-spdx-correct
nodejs-spdx-exceptions
nodejs-spdx-expression-parse
nodejs-spdx-license-ids
nodejs-split
nodejs-sprintf
nodejs-sprintf-js
nodejs-st
nodejs-stable
nodejs-stack-trace
nodejs-stack-utils
nodejs-static-favicon
nodejs-statuses
nodejs-std-mocks
nodejs-stream-combiner
nodejs-stream-counter
nodejs-stream-equal
nodejs-stream-reduce
nodejs-stream-replace
nodejs-stream-spigot
nodejs-stream-to-array
nodejs-streamsink
nodejs-string
nodejs-string-dot-prototype-dot-repeat
nodejs-string_decoder
nodejs-stringmap
nodejs-stringset
nodejs-strip-ansi
nodejs-strip-indent
nodejs-strip-json-comments
nodejs-strip-path
nodejs-strscanner
nodejs-stylus
nodejs-superagent
nodejs-superagent-proxy
nodejs-supertest
nodejs-supervisor
nodejs-supports-color
nodejs-svgo
nodejs-swap-case
nodejs-tap
nodejs-tap-parser
nodejs-tape
nodejs-tar
nodejs-tar-stream
nodejs-temp
nodejs-test
nodejs-testswarm
nodejs-text-table
nodejs-through
nodejs-through2
nodejs-thunkify
nodejs-timed-out
nodejs-timers-ext
nodejs-tiny-lr-fork
nodejs-tinycolor
nodejs-title-case
nodejs-transformers
nodejs-traverse
nodejs-tryor
nodejs-ttembed-js
nodejs-tunnel-agent
nodejs-type-detect
nodejs-type-is
nodejs-typeahead.js
nodejs-typedarray
nodejs-uglify-to-browserify
nodejs-uid-number
nodejs-uid-safe
nodejs-uid2
nodejs-ultron
nodejs-unc-path-regex
nodejs-underscore
nodejs-underscore-dot-logger
nodejs-underscore-dot-string
nodejs-unicode-length
nodejs-unique-filename
nodejs-unique-slug
nodejs-unpipe
nodejs-upper-case
nodejs-upper-case-first
nodejs-uri-path
nodejs-url-parse-lax
nodejs-url2
nodejs-util
nodejs-util-extend
nodejs-utile
nodejs-utils-merge
nodejs-validate-npm-package-license
nodejs-validate-npm-package-name
nodejs-verror
nodejs-vhost
nodejs-vow
nodejs-vow-fs
nodejs-vow-queue
nodejs-vows
nodejs-w3cjs
nodejs-walkdir
nodejs-watchit
nodejs-weak-map
nodejs-websocket-driver
nodejs-when
nodejs-which
nodejs-window-size
nodejs-winston
nodejs-with
nodejs-wordwrap
nodejs-write-file-atomic
nodejs-ws
nodejs-xmldom
nodejs-xregexp
nodejs-xtend
nodejs-yamlish
nodejs-yargs
nodejs-yauzl
nodejs-zip-stream
nodeunit
nodm
noggin
noggit
nohang
noip
nom-tam-fits
nomarch
nordugrid-arc
nordugrid-arc-doc
nordugrid-arc-gangliarc
nordugrid-arc-nagios-plugins
nordugrid-arc6
nosync
notcurses
notification-daemon
notify-python
notify-sharp
notify-sharp3
notmuch
nova-agent
novnc
npm
npm-name-cli
nqp
nrpe
nsca
nsca-ng
nsd
nsntrace
nss-altfiles
nss-mdns
nss-pam-ldapd
nss_wrapper
ntfs-3g
ntfs-3g-system-compression
ntl
ntp
ntpsec
nuclei
nudoku
nuget
nulib2
numix-gtk-theme
numix-icon-theme
numix-icon-theme-circle
numix-icon-theme-square
numlockx
nunit
nunit2
nut
nuttcp
nv-codec-headers
nvidia-query-resource-opengl
nvidia-texture-tools
nvml
nvtop
nwchem
nwipe
nx-libs
nyancat
nyx
oath-toolkit
obconf-qt
objenesis
obs-signd
ocaml-biniou
ocaml-cairo
ocaml-camlidl
ocaml-camlp5
ocaml-cppo
ocaml-cudf
ocaml-curl
ocaml-dune
ocaml-easy-format
ocaml-gen
ocaml-graphics
ocaml-lablgl
ocaml-lablgtk
ocaml-labltk
ocaml-lwt
ocaml-menhir
ocaml-migrate-parsetree
ocaml-num
ocaml-obuild
ocaml-opam-file-format
ocaml-ounit
ocaml-parmap
ocaml-pcre
ocaml-ppx-derivers
ocaml-ppx-tools-versioned
ocaml-ptmap
ocaml-qcheck
ocaml-qtest
ocaml-react
ocaml-result
ocaml-sedlex
ocaml-sexplib
ocaml-sha
ocaml-ssl
ocaml-type-conv
ocaml-xml-light
ocaml-xmlm
ocaml-yojson
ocaml-zarith
oci-kvm-hook
ocitools
ocl-icd
ocproxy
ocrad
ocserv
ocsinventory-agent
ocspd
octave
octave-control
octave-doctest
octave-general
octave-image
octave-interval
octave-io
octave-ncarray
octave-netcdf
octave-octcdf
octave-signal
octave-statistics
octomap
odb
odcs
odfpy
odt2txt
officeparser
offlineimap
oflb-asana-math-fonts
ogdi
oggconvert
ohmybackup
oidentd
ois
okteta
okular
omniORB
omniORBpy
oneVPL
oneVPL-intel-gpu
onednn
onedrive
oneko
onesixtyone
oniguruma
onionscan
oomd
opari2
open-eid
open-sendmail
open62541
openCOLLADA
openal-soft
openarc
openarena
openbabel
openbgpd
openbios
openblas
openblas-srpm-macros
openboardview
openbox
openbox-theme-mistral-thin
opencl-filesystem
opencl-headers
openconnect
openconnect-gateway
opencore-amr
opencsg
opencsv
opencv
opendbx
opendkim
opendmarc
openelp
openfortivpn
opengl-games-utils
opengrok
openh264
openhantek
openjdk-asmtools
openjdk-orb
openjpa
openkim-models
openldap-epel
openlibm
openlmi-scripts
openmeeg
openmx
openni
openocd
openpgl
openpgm
openpgpkey-milter
openprops
openqa
opensaml-java
openscap-daemon
openscap-report
opensips
[...]
rust-pad
rust-page_size
rust-pager
rust-pam
rust-pam-sys
rust-pancurses
rust-paris
rust-parking
rust-parking_lot
rust-parking_lot0.11
rust-parking_lot_core
rust-parking_lot_core0.8
rust-partition-identity
rust-paste
rust-path-absolutize
rust-path-dedot
rust-pathdiff
rust-pathfinder_geometry
rust-pathfinder_simd
rust-pcre2
rust-pcre2-sys
rust-peeking_take_while
rust-percent-encoding
rust-percent-encoding1
rust-permutohedron
rust-pest
rust-pest_derive
rust-pest_generator
rust-pest_meta
rust-petgraph
rust-petgraph0.5
rust-phf
rust-phf0.8
rust-phf_codegen
rust-phf_codegen0.8
rust-phf_generator
rust-phf_generator0.8
rust-phf_macros
rust-phf_macros0.8
rust-phf_shared
rust-phf_shared0.8
rust-pico-args
rust-pid
rust-pin-project
rust-pin-project-internal
rust-pin-project-lite
rust-pin-project-lite0.1
rust-pin-utils
rust-pkg-config
rust-plain
rust-pleaser
rust-plist
rust-png
rust-png0.16
rust-polling
rust-polyval
rust-pore
rust-portable-atomic
rust-portpicker
rust-ppv-lite86
rust-precomputed-hash
rust-predicates
rust-predicates-core
rust-predicates-tree
rust-predicates1
rust-predicates2
rust-pretty-bytes
rust-pretty_assertions
rust-pretty_assertions0.6
rust-pretty_assertions0.7
rust-pretty_env_logger
rust-primal-check
rust-print_bytes
rust-proc-macro-crate
rust-proc-macro-error
rust-proc-macro-error-attr
rust-proc-macro-hack
rust-proc-macro2
rust-proc-macro2-0.4
rust-proc-mounts
rust-procfs
rust-procfs0.14
rust-procfs0.9
rust-procs
rust-progpool
rust-proptest
rust-proptest-derive
rust-proptest0.10
rust-psl-types
rust-psm
rust-ptr_meta
rust-ptr_meta_derive
rust-publicsuffix
rust-pulldown-cmark
rust-pulldown-cmark0.8
rust-pure-rust-locales
rust-quantiles
rust-quick-error
rust-quick-error1
rust-quick-xml
rust-quick-xml0.17
rust-quickcheck
rust-quickcheck0.9
rust-quickcheck_macros
rust-quote
rust-quote0.6
rust-radium
rust-radix-heap
rust-rand
rust-rand0.4
rust-rand0.5
rust-rand0.6
rust-rand0.7
rust-rand_chacha
rust-rand_chacha0.1
rust-rand_chacha0.2
rust-rand_core
rust-rand_core0.3
rust-rand_core0.4
rust-rand_core0.5
rust-rand_distr
rust-rand_hc
rust-rand_hc0.1
rust-rand_isaac0.1
rust-rand_jitter0.1
rust-rand_os0.1
rust-rand_pcg
rust-rand_pcg0.1
rust-rand_pcg0.2
rust-rand_xorshift
rust-rand_xorshift0.1
rust-rand_xorshift0.2
rust-rand_xoshiro
rust-random-fast-rng
rust-random-trait
rust-randomize
rust-rav1e
rust-rayon
rust-rayon-core
rust-rbspy
rust-rd-agent
rust-rd-agent-intf
rust-rd-hashd
rust-rd-hashd-intf
rust-rd-util
rust-ref-cast
rust-ref-cast-impl
rust-regex
rust-regex-automata
rust-regex-syntax
rust-remove_dir_all
rust-rend
rust-reqwest
rust-resctl-bench
rust-resctl-demo
rust-resize
rust-resolv-conf
rust-rgb
rust-ripgrep
rust-rkyv
rust-rkyv_derive
rust-rle-decode-fast
rust-roff
rust-roff0.1
rust-ron
rust-ron0.7
rust-rpassword
rust-rpassword5
rust-rspec
rust-rtoolbox
rust-rust_decimal
rust-rustbus
rust-rustbus_derive
rust-rustc-demangle
rust-rustc-hash
rust-rustc-serialize
rust-rustc-test
rust-rustc_version
rust-rustc_version0.3
rust-rustdct
rust-rustfft
rust-rustfix
rust-rustix
rust-rustversion
rust-rusty-fork
rust-rxml
rust-rxml_proc
rust-rxml_validation
rust-ryu
rust-safe_arch
rust-safemem
rust-same-file
rust-scan_fmt
rust-scoped-tls
rust-scoped_threadpool
rust-scopeguard
rust-scroll
rust-scroll_derive
rust-seahash
rust-seahash3
rust-semver
rust-semver-parser
rust-semver-parser0.9
rust-semver0.11
rust-sequoia-keyring-linter
rust-sequoia-openpgp
rust-serde
rust-serde-value
rust-serde_bytes
rust-serde_cbor
rust-serde_derive
rust-serde_fmt
rust-serde_ignored
rust-serde_json
rust-serde_regex
rust-serde_spanned
rust-serde_stacker
rust-serde_test
rust-serde_urlencoded
rust-serde_yaml0.8
rust-serial_test
rust-serial_test0.5
rust-serial_test0.6
rust-serial_test_derive
rust-serial_test_derive0.5
rust-serial_test_derive0.6
rust-sha-1
rust-sha-1_0.9
rust-sha1
rust-sha1_0.6
rust-sha1_smol
rust-sha1collisiondetection
rust-sha2
rust-sha2_0.9
rust-shared_child
rust-shell-escape
rust-shell-words
rust-shellexpand
rust-shlex
rust-signal-hook
rust-signal-hook-mio
rust-signal-hook-registry
rust-signal-hook0.1
rust-simd_helpers
rust-simdutf8
rust-similar
rust-similar-asserts
rust-simplelog
rust-siphasher
rust-sized-chunks
rust-skeptic
rust-slab
rust-slog
rust-slog-async
rust-slog-term
rust-smallvec
rust-smartstring
rust-smawk
rust-socket2
rust-socket2_0.4
rust-spin
rust-spin0.5
rust-spin_on
rust-sptr
rust-srpm-macros
rust-stable_deref_trait
rust-stacker
rust-standback
rust-static_assertions
rust-statistical
rust-streebog
rust-strength_reduce
rust-string_cache
rust-string_cache_codegen
rust-strip-ansi-escapes
rust-strsim
rust-structopt
rust-structopt-derive
rust-strum0.21
rust-strum_macros
rust-strum_macros0.21
rust-subtle
rust-supports-color
rust-supports-hyperlinks
rust-supports-unicode
rust-sval
rust-sval_derive
rust-sval_json
rust-svgtypes
rust-syn
rust-syn0.15
rust-syn1
rust-synstructure
rust-syntect
rust-sys-info
rust-sysinfo0.19
rust-syslog
rust-system-deps
rust-take_mut
rust-tap
rust-tar
rust-target-lexicon
rust-tempdir
rust-tempfile
rust-tendril
rust-term
rust-term0.6
rust-term_grid
rust-term_size
rust-termbg
rust-termcolor
rust-terminal_size
rust-terminal_size0.1
rust-termion
rust-termion1
rust-termios
rust-termtree
rust-test-case
rust-test-case-macros
rust-tester
rust-textwrap
rust-textwrap0.11
rust-textwrap0.15
rust-thiserror
rust-thiserror-impl
rust-thread-id
rust-thread_local
rust-threadpool
rust-tiff
rust-tiff0.6
rust-time
rust-time-core
rust-time-macros
rust-time-macros-impl
rust-time-macros0.1
rust-time0.1
rust-time0.2
rust-tiny-keccak
rust-tinytemplate
rust-tinyvec
rust-tinyvec_macros
rust-tokio
rust-tokio-codec
rust-tokio-core
rust-tokio-current-thread
rust-tokio-executor
rust-tokio-fs
rust-tokio-io
rust-tokio-macros
rust-tokio-macros0.2
rust-tokio-mock-task
rust-tokio-native-tls
rust-tokio-openssl
rust-tokio-reactor
rust-tokio-socks
rust-tokio-stream
rust-tokio-sync
rust-tokio-tcp
rust-tokio-test
rust-tokio-threadpool
rust-tokio-timer
rust-tokio-udp
rust-tokio-uds
rust-tokio-util
rust-tokio-util0.6
rust-tokio0.1
rust-tokio0.2
rust-toml
rust-toml0.5
rust-toml_datetime
rust-toml_edit
rust-tower-layer
rust-tower-service
rust-tracing
rust-tracing-attributes
rust-tracing-core
rust-tracing_chromium
rust-tracing_facade
rust-transpose
rust-tree-sitter
rust-tree_magic_db
rust-tree_magic_mini
rust-treeline
rust-trust-dns-proto
rust-trust-dns-resolver
rust-try-lock
rust-trybuild
rust-ttf-parser0.12
rust-typed-arena
rust-typed-arena1
rust-typenum
rust-ucd-parse
rust-ucd-trie
rust-ufmt-write
rust-unarray
rust-uncased
rust-unicase
rust-unicode-bidi
rust-unicode-ident
rust-unicode-linebreak
rust-unicode-normalization
rust-unicode-segmentation
rust-unicode-width
rust-unicode-xid
rust-unicode-xid0.1
rust-unindent
rust-unindent0.1
rust-universal-hash
rust-url
rust-url1
rust-users
rust-utf-8
rust-utf8-width
rust-utf8parse
rust-uuid
rust-v_frame
rust-value-bag
rust-vec_map
rust-vergen
rust-vergen3
rust-version-compare
rust-version-sync
rust-version-sync0.8
rust-version_check
rust-vsprintf
rust-vt100
rust-vte
rust-vte_generate_state_changes
rust-wait-timeout
rust-waker-fn
rust-walkdir
rust-want
rust-weak-table
rust-weezl
rust-which
rust-wild
rust-winnow
rust-wu-diff
rust-wyz
rust-xattr
rust-xattr0.2
rust-xi-unicode
rust-xml-rs
rust-xml5ever
rust-xmlwriter
rust-xxhash-c-sys
rust-xxhash-rust
rust-xz2
rust-y4m
rust-yaml-rust
rust-yansi
rust-zeroize
rust-zeroize_derive
rust-zoneinfo_compiled
rust-zram-generator
rust-zstd
rust-zstd-safe
rust-zstd-sys
rxjava
rxtx
rxvt-unicode
s-nail
s3cmd
s3fs-fuse
safecopy
safekeep
safelease
safetyblanket
sagator
sahara-image-elements
sakura
salt
salt-lint
samdump2
samefile
samtools
sane-frontends
saoimage
saslwrapper
sassc
sasutils
sazanami-fonts
sbcl
scala
scalapack
scalasca
scalpel
scamper
scanless
scanssh
scapy
scdoc
schedtool
schroedinger
schroot
scigraphica
scim
scite
scitokens-cpp
scl-utils-build-helpers
scons
scorep
scotch
scponly
scram
screen
screengrab
screenkey
scribus
scsi-target-utils
sdbus-cpp
sdcc
sddm
sddm-kcm
sdformat
sdl-crypto
sdl-decnumber
sdl-softfloat
sdl-telnet
sdorfehs
sdparm
seahorse-caja
seamonkey
sec
secilc
security-menus
sedutil
sems
semver
sen
senamirmir-washra-font
sendemail
sendxmpp
sensible-utils
sentencepiece
ser2net
serd
seren
sevmgr
sfnt2woff-zopfli
sfsexp
sha2
shaderc
shairport-sync
shake
shaman
shapelib
shc
shdoc
sheepdog
shelldap
shellinabox
shellz
shflags
shhgit
shibboleth-java-support
shiboken
shigofumi
shinken
shogun
shogun-data
shorewall
shortrpm
shrinkwrap
shrinkwrap-descriptors
shrinkwrap-resolver
shtool
shuffledns
shyaml
sicktoolbox
sidplayfp
siege
sigil
signify
signon
signon-kwallet-extension
signon-plugin-oauth2
signon-ui
signpost-core
sigul
sil-mingzat-fonts
silkscreen-fonts
silvia
simarrange
simcrs
simde
simdjson
simdutf
simfqt
simple-ccsm
simple-scan
simple-tpm-pk11
simple-xml
since
sing
singularity-ce
sip-redirect
sip6
sipcalc
sipp
sipvicious
siril
sispmctl
sj-fonts
skanlite
skeinforge
skipfish
sks
skyviewer
sl
slack-cleaner
sleef
sleuthkit
slf4j-jboss-logmanager
slibtool
slick-greeter
slim
sloccount
slop
slowhttptest
slowloris
slrn
slurm
slv2
smaclient
smartsim
smbldap-tools
smcalc
smem
smesh
smokegen
smokeping
smokeqt
smoldyn
smp_utils
smstools
smtpping
snakeyaml
snallygaster
snapd
snapd-glib
snappy-java
snapraid
snmpcheck
snmptt
snoopy
snowcrash
soci
socialscan
socket_wrapper
sockperf
socnetv
softfloat
softhsm
solaar
solo3
sombok
sord
soscleaner
soundkonverter
source-to-image
sourcextractor++
sox
soxr
spacebar
spacechart
spacecmd
spacefm
spacenavd
spamass-milter
spamassassin-dqs
spamassassin-iXhash2
spandsp
sparse
sparsehash
spasm-ng
spatial4j
spatialindex
spatialite-tools
spawn-fcgi
spdlog
spdrs60
spec-version-maven-plugin
spectacle
spectre-meltdown-checker
spectrwm
speech-tools
speedtest-cli
spew
spglib
sphinx
sphinx-webtools
spice-html5
spin
spirv-headers
spirv-tools
splint
splix
spnavcfg
spooky-c
springframework
spyder
sqlcipher
sqlgrey
sqlite2
sqlite3-dbf
sqlninja
sqm-scripts
squashfuse
squeezelite
squidGuard
squirrel
squirrelmail
srain
sratom
srcpd
srecord
srm
srm-ifce
srt
sscep
sscg
ssdeep
sshexport
sshguard
sshpass
sshuttle
ssldump
sslh
sslscan
sslsplit
ssm
ssmtp
sstp-client
st
stacer
stalonetray
standard-test-roles
statscache
statscache-plugins
statsd
statserial
status-report
staxmapper
stb
stbi
stdair
stellarium
step
stevetraylen
stgit
stlink
stockfish
stoken
stompclt
stomppy
stonevpn
storaged
stow
strawberry
stream-lib
stress
stress-ng
stressapptest
stringtemplate
stringtemplate4
strongswan
struts
stubby
stupid-package
subfinder
subnetcalc
subunit
sucrack
suil
suitesparse-epel
sunbird
sundials
sundials2
sunwait
sunxi-tools
superlu_dist
supervisor
supybot-fedmsg
supybot-fedora
supybot-koji
supybot-meetbot
supybot-notify
suricata
svgpart
svgsalamander
svn2cl
svnmailer
svt-av1
svt-vp9
swagger-core
swaks
swatch
sweeper
swift-lang
switchdesk
switchtec
sword
sx
sxhkd
sylfilter
sylpheed
sympa
sympy
syncthing
synergy
sys_basher
sysbench
sysconftool
syslog-ng
sysprof
sysreporter
systemd-bootchart
systemd-coredump-python
systemd-epel
systemd-extras
sysusage
sysutil
t1lib
t1utils
tabish-eeyek-fonts
tacacs
tachyon
tagainijisho
taglib-extras
taglib-sharp
tagsoup
takari-archiver
takari-filemanager
takari-incrementalbuild
takari-lifecycle
takari-smart-builder
tangerine
tangerine-fonts
tango-icon-theme
tango-icon-theme-extras
tapkee
tarantool
target-isns
targetd
tart
task
task-spooler
taskd
taskjuggler
tayga
tcalc
tcl-mysqltcl
tcl-tclnagios
tcl-tclreadline
tcl-tclxml
tcl-thread
tcl-togl
tcllib
tcltls
tcp_wrappers
tcpcrypt
tcpflow
tcpick
tcping
tcplay
tcpreen
tcpreplay
tcptrack
tcpxtract
tdlib
teem
teeworlds
tegrarcm
telepathy-rakia
termbox
terminator
terminology
terminus-fonts
terrier
teseq
tesseract
tesseract-tessdata
testcloud
testdisk
testssl
tetex-dvipost
tetgen
texlive-extension
texmaker
textcat
textern
texworks
tfdocgen
tharlon-fonts
thc-ipv6
the_foundation
the_silver_searcher
thefuck
thermald
thrift
thttpd
thunar-archive-plugin
thunar-media-tags-plugin
thunar-vcs-plugin
thunar-volman
thunarx-python
thunderbird-enigmail
thunderbird-lightning
tidy
tidyp
tiedot
tig
tika
tiles
tilibs
tilix
tilp2
tilp_and_gfm
timeshift
tinc
tini
tint2
tinyca2
tinycdb
tinydir
tinyexr
tinyfugue
tinyproxy
tinyxml
tinyxml2
tio
tipcutils
tiptop
tito
tkcvs
tklib
tkrzw
tldr
tlock
tlog
tlp
tlssled
tmate
tmt
tmux-top
tmuxinator
tnef
tnftp
tng
todocli
tofrodos
tolua++
tomcat
tomcat-native
tomcat-taglibs-standard
tomcli
toml11
tomoe
tor
torbrowser-launcher
torcs
torcs-data
torque
torrent-file-editor
torsocks
totpcgi
tpm-tools
tpm2-pkcs11
trabajo-fonts
trac
trac-blackmagictickettweaks-plugin
trac-mercurial-plugin
trace-summary
tracer
tracker
trademgen
trader
trafficserver
trafshow
transifex
transifex-client
translate-shell
translate-toolkit
transmission
transtats-cli
trash-cli
travelccm
tre
tree-sitter
treefrog-framework
treelayout
tremulous
tremulous-data
trickle
trinity
tripwire
trojan
trojita
trousers
trustedqsl
tryton
trytond
trytond-account
trytond-account-be
trytond-account-de-skr03
trytond-account-invoice
trytond-account-invoice-history
trytond-account-invoice-line-standalone
trytond-account-product
trytond-account-statement
trytond-account-stock-anglo-saxon
trytond-account-stock-continental
trytond-analytic-account
trytond-analytic-invoice
trytond-analytic-purchase
trytond-analytic-sale
trytond-calendar
trytond-calendar-classification
trytond-calendar-scheduling
trytond-calendar-todo
trytond-company
trytond-company-work-time
trytond-country
trytond-currency
trytond-dashboard
trytond-google-maps
trytond-ldap-authentication
trytond-ldap-connection
trytond-party
trytond-party-siret
trytond-party-vcarddav
trytond-product
trytond-product-cost-fifo
trytond-product-cost-history
trytond-product-price-list
trytond-project
trytond-project-plan
trytond-project-revenue
trytond-purchase
trytond-purchase-invoice-line-standalone
trytond-sale
trytond-sale-opportunity
trytond-sale-price-list
trytond-stock
trytond-stock-forecast
trytond-stock-inventory-location
trytond-stock-location-sequence
trytond-stock-product-location
trytond-stock-supply
trytond-stock-supply-day
trytond-timesheet
tsl-sparse-map
tslib
tsung
ttembed
ttf2pt1
ttfautohint
tuladha-jejeg-fonts
tulrich-tuffy-fonts
tumbler
tunir
tunneler
tuptime
tuxanci
tuxcut
tuxpaint
twa
tweak
tweeny
twincam
twolame
tworld
txt2man
txt2regex
txt2tags
typescript
typetype-molot-fonts
u2f-hidraw-policy
uARMSolver
uClibc
uberftp
ubloxcfg
uboot-tools
ubridge
ubu-keyring
ucarp
uchardet
ucl
ucommon
ucpp
ucview
udis86
udiskie
udns
udpcast
udt
udunits2
ufdbGuard
ufraw
ufw
uget
uglify-js
uglify-js1
uglify-js3
ugrep
uhd
uhubctl
uid_wrapper
uima-addons
uimaj
ultimarc
umbrello
umlgraph
umockdev
umr
unar
uncrustify
undertow
undertow-js
unhide
unibilium
unicornscan
unifdef
unifont
unifying-receiver-udev
unique
unison240
unittest-cpp
unoconv
unpaper
unrar-free
unrealircd
unrtf
unshield
unuran
unzoo
uom-parent
up-imapproxy
uperf
upt
uptimed
upx
urdfdom
urdfdom-headers
uredir
uriparser
urjtag
urlbuster
ursa-major
usbauth
usbauth-notifier
usbip
usbsniff
userspace-rcu
usrsctp
ustl
utf8cpp
utf8proc
uthash
uucp
uw-imap
uwsgi
v-hacd
v8
vagrant
vagrant-libvirt
vagrant-registration
valabind
vamp-plugin-sdk
vanessa_adt
vanessa_logger
vanessa_socket
vapoursynth
varnish
vboot-utils
vcdimager
vcftools
vconfig
vcs-diff-lint
vcsh
vdpauinfo
vdsm
velocity-tools
vera++
verilator
veristat
vertica-python
veusz
vid.stab
video-downloader
viewvc
vifm
viking
vile
vim-airline
vim-ansible
vim-devicons
vim-editorconfig
vim-fugitive
vim-fugitive-gitlab
vim-gitgutter
vim-go
vim-gtk-syntax
vim-gv
vim-jellybeans
vim-mediawiki
vim-nerdtree-git-plugin
vim-omnicppcomplete
vim-pathogen
vim-toml
vim-trailing-whitespace
vim-vimoutliner
virglrenderer
virt-backup
vkd3d
vl-gothic-fonts
vlgothic-fonts
vmaf
vmtouch
vncpwd
vnstat
vo-amrwbenc
vodovod
vokoscreenNG
voms
voms-api-java
voms-clients-java
voms-mysql-plugin
voro++
vorta
votca
votca-csg
votca-tools
votca-xtp
vpnc
vpnc-script
vrms-rpm
vsomeip3
vsqlite++
vtable-dumper
vte
vtk
vtkdata
vtun
vym
w3c-markup-validator
w3m
wabt
wad
waf
waffle
wafw00f
waiverdb
wammu
wangle
wannier90
wapiti
warsow
warsow-data
warzone2100
wasmedge
wavemon
wbox
wcd
wcm
wcslib
wcstools
wdiff
weasyprint
web-assets
web-assets-epel
webalizer
webanalyze
webextension-token-signing
webfts
webp-pixbuf-loader
websocketpp
websvn
webtech
weechat
weld-api
weld-core
wemux
weplab
wesnoth
weston
wfuzz
wgrib
wgrib2
whatsup
whatweb
whereami
whichfont
whowatch
whsniff
wide-dhcpv6
wiiuse
wildfly
wildfly-arquillian
wildfly-build-tools
wildfly-common
wildfly-core
wildfly-elytron
wildfly-security-manager
wildmagic5
wildmidi
will-crash
wimlib
wine
wine-docs
winetricks
wiredtiger
wireguard-tools
wireless-tools
wise2
withlock
wkhtmltopdf
wlcs
wmctrl
wob
woff
woffTools
wol
wondershaper
wordpress
worker
workrave
wp-cli
ws-xmlschema
wsdd
wsdlpull
wsjtx
wss4j
wt
wult
wv
wxGTK
wxGTK3
wxPython
wxmacmolplt
wyhash
x11vnc
x2goclient
x2godesktopsharing
x2goserver
x509viewer
x509watch
xa
xalan-c
xapian-bindings
xapian-core
xapps
xar
xarchiver
xastir
xawtv
xbacklight
xbae
xbanish
xbar
xbg
xboxdrv
xbyak
xca
xcalc
xcat
xcb-util-cursor
xcb-util-xrm
xcin
xclip
xclipboard
xclock
xcompmgr
xdelta
xdg-desktop-portal-kde
xdotool
xe-guest-utilities-latest
xed
xedit
xemacs
xemacs-packages-base
xemacs-packages-extra
xenlism-wildfire
xephem
xerces-c
xfburn
xfce-polkit
xfce4-appfinder
xfce4-battery-plugin
xfce4-calculator-plugin
xfce4-cellmodem-plugin
xfce4-clipman-plugin
xfce4-cpufreq-plugin
xfce4-cpugraph-plugin
xfce4-datetime-plugin
xfce4-dev-tools
xfce4-dict
xfce4-diskperf-plugin
xfce4-docklike-plugin
xfce4-equake-plugin
xfce4-eyes-plugin
xfce4-fsguard-plugin
xfce4-genmon-plugin
xfce4-hamster-plugin
xfce4-hardware-monitor-plugin
xfce4-mailwatch-plugin
xfce4-mixer
xfce4-modemlights-plugin
xfce4-mount-plugin
xfce4-mpc-plugin
xfce4-netload-plugin
xfce4-notes-plugin
xfce4-notifyd
xfce4-panel
xfce4-panel-profiles
xfce4-places-plugin
xfce4-power-manager
xfce4-pulseaudio-plugin
xfce4-quicklauncher-plugin
xfce4-radio-plugin
xfce4-screensaver
xfce4-screenshooter
xfce4-sensors-plugin
xfce4-session
xfce4-settings
xfce4-smartbookmark-plugin
xfce4-statusnotifier-plugin
xfce4-systemload-plugin
xfce4-taskmanager
xfce4-terminal
xfce4-time-out-plugin
xfce4-timer-plugin
xfce4-vala
xfce4-verve-plugin
xfce4-volumed
xfce4-wavelan-plugin
xfce4-weather-plugin
xfce4-whiskermenu-plugin
xfce4-xfswitch-plugin
xfce4-xkb-plugin
xfconf
xfdashboard
xfdesktop
xfig
xfmpc
xfoil
xfontsel
xforms
xfpanel-switch
xfwm4
xfwm4-themes
xine-lib
xine-ui
xiphos
xkbset
xl2tpd
xlcrack
xloadimage
xlockmore
xls2csv
xmakemol
xmessage
xml-security
xml-security-c
xml2
xmlbeans
xmlcopyeditor
xmlpull
xmlstarlet
xmlstreambuffer
xmms
xmonad
xmount
xmp
xmp-plugin-audacious
xmpcore
xmppc
xnec2c
xnio
xom
xonotic
xonotic-data
xoreos-tools
xorg-x11-drv-synaptics
xorg-x11-resutils
xorgxrdp
xorsearch
xortool
xosd
xournal
xournalpp
xpa
xpad
xpanes
xpdf
xplanet
xplayer
xplayer-plparser
xpp3
xpra
xqc
xqilla
xrdhttpvoms
xrdp
xreader
xrootd
xrootd-compat
xrotor
xschem
xscreensaver
xsd
xsecurelock
xsel
xsensors
xsettingsd
xsimd
xsp
xstar
xstream
xteddy
xtuple-csvimp
xtuple-openrpt
xvidcore
xviewer
xviewer-plugins
xvkbd
xwaylandvideobridge
xwm
xxhash
yad
yadifa
yakuake
yaml-cpp
yaml-cpp03
yamllint
yank
yapet
yara
yarnpkg
yascreen
yasm
yast2-devtools
yast2-filesystem
yawn
yaws
ycssmin
ydotool
yersinia
yggdrasil
ykclient
ykpers
ykushcmd
yosys
yourls
youtube-dl
yt-dlp
ytnef
yubico-piv-tool
yubihsm-connector
yubihsm-shell
yubikey-manager
yubikey-personalization-gui
yubikey-piv-manager
yubioath-desktop
yuicompressor
yum-axelget
yumex
z3
z80asm
z80dasm
zabbix
zabbix40
zabbix50
zabbix6.0
zanata-platform
zanata-python-client
zarafa
zathura
zathura-cb
zathura-djvu
zathura-pdf-poppler
zathura-ps
zbackup
zbar
zcfan
zchunk
zeal
zeek
zerofree
zeromq
zeromq2
zeromq3
zezere
zfp
zgrab2
zile
zimg
zimlib
zinnia
zint
zipios++
zlib-ada
zmap
znc
znc-clientbuffer
znc-push
zoo
zookeeper
zopfli
zork
zram
zsh-lovers
zsh-syntax-highlighting
zstd
zswap-cli
zulucrypt
zvbi
zxing-cpp
zyx-liveinstaller
zziplib
zzuf
